 -0.12000000000000000          0.0000000000000000     
 -0.11889999999999999          0.0000000000000000     
 -0.11780000000000000          0.0000000000000000     
 -0.11670000000000000          0.0000000000000000     
 -0.11559999999999999          0.0000000000000000     
 -0.11449999999999999          0.0000000000000000     
 -0.11340000000000000          0.0000000000000000     
 -0.11230000000000000          0.0000000000000000     
 -0.11119999999999999          0.0000000000000000     
 -0.11009999999999999          0.0000000000000000     
 -0.10900000000000000          0.0000000000000000     
 -0.10790000000000000         -2.7092899009440572E-036
 -0.10679999999999999          1.8807757991989758E-035
 -0.10569999999999999          5.7050144193342919E-033
 -0.10460000000000000          9.6891707518386373E-032
 -0.10349999999999999          8.2451085786212479E-031
 -0.10239999999999999          4.4688876707787302E-030
 -0.10130000000000000          1.6417852729194690E-029
 -0.10020000000000000          3.8016475867547838E-029
  -9.9099999999999994E-002     2.2330387032162506E-029
  -9.7999999999999990E-002    -2.5087320149421734E-028
  -9.6899999999999986E-002    -1.3486842695642478E-027
  -9.5799999999999996E-002    -4.0350631687109773E-027
  -9.4699999999999993E-002    -7.7466620304242625E-027
  -9.3599999999999989E-002    -6.2344439743537695E-027
  -9.2499999999999999E-002     1.9154181240665178E-026
  -9.1399999999999995E-002     1.0055532685912704E-025
  -9.0299999999999991E-002     2.5733250185065264E-025
  -8.9200000000000002E-002     4.1176226034438429E-025
  -8.8099999999999984E-002     2.4281707897898050E-025
  -8.6999999999999994E-002    -9.1887467823012067E-025
  -8.5899999999999990E-002    -3.8557885492434885E-024
  -8.4799999999999986E-002    -8.4252824792786421E-024
  -8.3699999999999997E-002    -1.1463290523023539E-023
  -8.2599999999999993E-002    -4.4356651945025468E-024
  -8.1499999999999989E-002     2.6248819949240714E-023
  -8.0399999999999999E-002     9.1111658042083008E-023
  -7.9299999999999995E-002     1.7694793127994921E-022
  -7.8199999999999992E-002     2.1633867044885622E-022
  -7.7100000000000002E-002     6.7291877393492632E-023
  -7.5999999999999984E-002    -4.5435297648758435E-022
  -7.4899999999999994E-002    -1.4369431728042570E-021
  -7.3799999999999991E-002    -2.6101620182421868E-021
  -7.2699999999999987E-002    -3.0443819830009654E-021
  -7.1599999999999997E-002    -1.0711303907723462E-021
  -7.0499999999999993E-002     5.1652113008211414E-021
  -6.9399999999999989E-002     1.6164791119652715E-020
  -6.8300000000000000E-002     2.8648793520093037E-020
  -6.7199999999999996E-002     3.3342893119662158E-020
  -6.6099999999999992E-002     1.5261656387567844E-020
  -6.5000000000000002E-002    -4.0598513696538844E-020
  -6.3899999999999985E-002    -1.3646780629568948E-019
  -6.2799999999999995E-002    -2.4429793998748992E-019
  -6.1699999999999991E-002    -2.9256657280614373E-019
  -6.0599999999999994E-002    -1.7286825754262224E-019
  -5.9499999999999990E-002     2.1737674686594685E-019
  -5.8399999999999994E-002     8.9085944829256559E-019
  -5.7299999999999990E-002     1.6659298880052870E-018
  -5.6199999999999986E-002     2.0985804524034052E-018
  -5.5099999999999996E-002     1.5354840612738920E-018
  -5.3999999999999992E-002    -6.3516120293122775E-019
  -5.2899999999999989E-002    -4.5275622449077881E-018
  -5.1799999999999985E-002    -9.2243909912671909E-018
  -5.0699999999999995E-002    -1.2454163269291316E-017
  -4.9599999999999991E-002    -1.0870427349961207E-017
  -4.8499999999999988E-002    -1.2488102376762445E-018
  -4.7399999999999998E-002     1.7418586554115650E-017
  -4.6299999999999994E-002     4.1530654612032413E-017
  -4.5199999999999990E-002     6.1417843254740429E-017
  -4.4099999999999986E-002     6.2378540737789687E-017
  -4.2999999999999997E-002     2.9396403594472302E-017
  -4.1899999999999993E-002    -4.4610790022752257E-017
  -4.0799999999999989E-002    -1.4928816458392482E-016
  -3.9699999999999985E-002    -2.5055471997290262E-016
  -3.8599999999999995E-002    -2.9304277633004238E-016
  -3.7499999999999992E-002    -2.1541595614493043E-016
  -3.6399999999999988E-002     2.1700325901336265E-017
  -3.5299999999999984E-002     4.0223447905789430E-016
  -3.4199999999999994E-002     8.2953753566050724E-016
  -3.3099999999999991E-002     1.1268765013546822E-015
  -3.1999999999999987E-002     1.0772053143205557E-015
  -3.0899999999999997E-002     5.0364685028529064E-016
  -2.9799999999999993E-002    -6.2673984094308748E-016
  -2.8699999999999989E-002    -2.1127547541514943E-015
  -2.7599999999999986E-002    -3.4902345248874476E-015
  -2.6499999999999996E-002    -4.1062496545364701E-015
  -2.5399999999999992E-002    -3.3103883143151118E-015
  -2.4299999999999988E-002    -7.3211171799906690E-016
  -2.3199999999999985E-002     3.4363727552553225E-015
  -2.2099999999999995E-002     8.2667477982793390E-015
  -2.0999999999999991E-002     1.2145509451060847E-014
  -1.9899999999999987E-002     1.3117436120144874E-014
  -1.8799999999999983E-002     9.5004917276561021E-015
  -1.7699999999999994E-002     6.3980539572482323E-016
  -1.6599999999999990E-002    -1.2429819032661979E-014
  -1.5499999999999986E-002    -2.6689367357565779E-014
  -1.4399999999999996E-002    -3.7448079484880373E-014
  -1.3299999999999992E-002    -3.9370262201070494E-014
  -1.2199999999999989E-002    -2.8114398083025581E-014
  -1.1099999999999985E-002    -2.2401214327137939E-015
  -9.9999999999999950E-003     3.5170358879117639E-014
  -8.8999999999999913E-003     7.5829759518111059E-014
  -7.7999999999999875E-003     1.0707894058232621E-013
  -6.6999999999999837E-003     1.1452105708419474E-013
  -5.5999999999999939E-003     8.6247751497213923E-014
  -4.4999999999999901E-003     1.7833381645387653E-014
  -3.3999999999999864E-003    -8.3305925411644807E-014
  -2.2999999999999826E-003    -1.9592012811074043E-013
  -1.1999999999999927E-003    -2.8688931760050795E-013
  -9.9999999999988987E-005    -3.1797218815953347E-013
   1.0000000000000148E-003    -2.5680696142341066E-013
   2.1000000000000185E-003    -8.9933865754639696E-014
   3.2000000000000084E-003     1.6593722057644277E-013
   4.3000000000000121E-003     4.5894030682355881E-013
   5.4000000000000159E-003     7.0725665182262840E-013
   6.5000000000000058E-003     8.1616798011286353E-013
   7.6000000000000234E-003     7.0501475060383474E-013
   8.7000000000000133E-003     3.3803901009910108E-013
   9.8000000000000032E-003    -2.5011307801777206E-013
   1.0900000000000021E-002    -9.4435975951093165E-013
   1.2000000000000011E-002    -1.5623868163516582E-012
   1.3100000000000001E-002    -1.8931632848338994E-012
   1.4200000000000018E-002    -1.7549905737740348E-012
   1.5300000000000008E-002    -1.0594624903284177E-012
   1.6400000000000026E-002     1.3745557610870351E-013
   1.7500000000000016E-002     1.6162107157432252E-012
   1.8600000000000005E-002     3.0194603643347811E-012
   1.9700000000000023E-002     3.9249133994987678E-012
   2.0800000000000013E-002     3.9534107978969259E-012
   2.1900000000000003E-002     2.8876814487442793E-012
   2.3000000000000020E-002     7.6952742349844058E-013
   2.4100000000000010E-002    -2.0564555966115570E-012
   2.5200000000000000E-002    -4.9750763633949668E-012
   2.6300000000000018E-002    -7.2140061972921177E-012
   2.7400000000000008E-002    -8.0225914499808893E-012
   2.8500000000000025E-002    -6.8797460708473055E-012
   2.9600000000000015E-002    -3.6804784794113175E-012
   3.0700000000000005E-002     1.1528518256398958E-012
   3.1800000000000023E-002     6.6786503688090453E-012
   3.2900000000000013E-002     1.1584653372623183E-011
   3.4000000000000002E-002     1.4464964181554424E-011
   3.5100000000000020E-002     1.4176876558353687E-011
   3.6200000000000010E-002     1.0197151805766777E-011
   3.7300000000000028E-002     2.8805481427928581E-012
   3.8400000000000017E-002    -6.4702649480860115E-012
   3.9500000000000007E-002    -1.5780873584214760E-011
   4.0600000000000025E-002    -2.2627094890474408E-011
   4.1700000000000015E-002    -2.4831744204004018E-011
   4.2800000000000005E-002    -2.1099688702427554E-011
   4.3900000000000022E-002    -1.1516067930100444E-011
   4.5000000000000012E-002     2.2608529337377480E-012
   4.6100000000000002E-002     1.7220976309584165E-011
   4.7200000000000020E-002     2.9641509929965868E-011
   4.8300000000000010E-002     3.6021831717856609E-011
   4.9400000000000027E-002     3.4082199059064479E-011
   5.0500000000000017E-002     2.3539257517872011E-011
   5.1600000000000007E-002     6.3979828226869298E-012
   5.2700000000000025E-002    -1.3387092487203658E-011
   5.3800000000000014E-002    -3.0852796504438584E-011
   5.4900000000000004E-002    -4.1351988896632857E-011
   5.6000000000000022E-002    -4.1899746153187653E-011
   5.7100000000000012E-002    -3.2133850910166198E-011
   5.8200000000000002E-002    -1.4562288918240902E-011
   5.9300000000000019E-002     6.0368843258171524E-012
   6.0400000000000009E-002     2.3943766477569786E-011
   6.1500000000000027E-002     3.4193886703051086E-011
   6.2600000000000017E-002     3.4139527782566610E-011
   6.3700000000000007E-002     2.4372259500821437E-011
   6.4800000000000024E-002     8.6658067956552310E-012
   6.5900000000000014E-002    -7.1188376744905075E-012
   6.7000000000000004E-002    -1.6900242204733052E-011
   6.8100000000000022E-002    -1.6481820504158332E-011
   6.9200000000000012E-002    -5.2374356970071853E-012
   7.0300000000000029E-002     1.3214446788889713E-011
   7.1400000000000019E-002     3.1687080123455857E-011
   7.2500000000000009E-002     4.1411682762748514E-011
   7.3600000000000027E-002     3.4884954039834172E-011
   7.4700000000000016E-002     8.8059975109965290E-012
   7.5800000000000006E-002    -3.3808563561509595E-011
   7.6900000000000024E-002    -8.3138263148058734E-011
   7.8000000000000014E-002    -1.2415785142517150E-010
   7.9100000000000004E-002    -1.4024135860028341E-010
   8.0200000000000021E-002    -1.1808423115796615E-010
   8.1300000000000011E-002    -5.2732636252041020E-011
   8.2400000000000029E-002     4.8770280375668117E-011
   8.3500000000000019E-002     1.6651973585684126E-010
   8.4600000000000009E-002     2.7054776758810217E-010
   8.5700000000000026E-002     3.2727756526874358E-010
   8.6800000000000016E-002     3.0854194662879424E-010
   8.7900000000000006E-002     2.0106831365365227E-010
   8.9000000000000024E-002     1.3728280317607478E-011
   9.0100000000000013E-002    -2.2007708025917088E-010
   9.1200000000000003E-002    -4.4664345076176085E-010
   9.2300000000000021E-002    -6.0294507592062726E-010
   9.3400000000000011E-002    -6.3253106120782530E-010
   9.4500000000000028E-002    -5.0266332455810556E-010
   9.5600000000000018E-002    -2.1794017601726478E-010
   9.6700000000000008E-002     1.7419672535475351E-010
   9.7800000000000026E-002     5.8910410113097720E-010
   9.8900000000000016E-002     9.2199614922947716E-010
  0.10000000000000001          1.0733864364186097E-009
  0.10110000000000002          9.7695277431678839E-010
  0.10220000000000001          6.2227115276011033E-010
  0.10330000000000003          6.5280246320618158E-011
  0.10440000000000002         -5.7809085966319989E-010
  0.10550000000000001         -1.1554636652364319E-009
  0.10660000000000003         -1.5142120844631569E-009
  0.10770000000000002         -1.5417389513920635E-009
  0.10880000000000001         -1.1991888653050544E-009
  0.10990000000000003         -5.3874225001402881E-010
  0.11100000000000002          3.0174119125649305E-010
  0.11210000000000001          1.1272777116107471E-009
  0.11320000000000002          1.7317783629720681E-009
  0.11430000000000001          1.9506273554342055E-009
  0.11540000000000003          1.7063550139947120E-009
  0.11650000000000002          1.0348481240812193E-009
  0.11760000000000001          8.3866206872446092E-011
  0.11870000000000003         -9.1762194407246900E-010
  0.11980000000000002         -1.7132339588551830E-009
  0.12090000000000001         -2.0836814302149548E-009
  0.12200000000000003         -1.9060457195134714E-009
  0.12310000000000001         -1.1922411468029599E-009
  0.12420000000000003         -9.5442699042367076E-011
  0.12530000000000002          1.1192814991854864E-009
  0.12640000000000001          2.1350010142646557E-009
  0.12750000000000003          2.6603123391534840E-009
  0.12860000000000002          2.5054156309133191E-009
  0.12970000000000001          1.6372344744071736E-009
  0.13080000000000003          1.9794165806483054E-010
  0.13190000000000002         -1.5203215604175160E-009
  0.13300000000000001         -3.1407110677031482E-009
  0.13410000000000000         -4.2921291061726933E-009
  0.13520000000000004         -4.7021197030508404E-009
  0.13630000000000003         -4.2670927024985603E-009
  0.13740000000000002         -3.0792472525905233E-009
  0.13850000000000001         -1.4003715922057158E-009
  0.13960000000000000          4.1254026580774450E-010
  0.14070000000000005          2.0101728347048920E-009
  0.14180000000000004          3.1522630760149036E-009
  0.14290000000000003          3.7752356091016971E-009
  0.14400000000000002          4.0014239650459149E-009
  0.14510000000000001          4.0813418878396832E-009
  0.14620000000000000          4.2812021681515979E-009
  0.14730000000000004          4.7472542755396922E-009
  0.14840000000000003          5.3902458445120078E-009
  0.14950000000000002          5.8328615032379378E-009
  0.15060000000000001          5.4490388351204564E-009
  0.15170000000000000          3.4994522392135183E-009
  0.15280000000000005         -6.6133497641000728E-010
  0.15390000000000004         -7.3551094187535035E-009
  0.15500000000000003         -1.6389116034502083E-008
  0.15610000000000002         -2.6960889021720962E-008
  0.15720000000000001         -3.7693911075360986E-008
  0.15830000000000000         -4.6805339419147478E-008
  0.15940000000000004         -5.2370225382459034E-008
  0.16050000000000003         -5.2617072329346471E-008
  0.16160000000000002         -4.6176384512026804E-008
  0.16270000000000001         -3.2210883422383781E-008
  0.16380000000000000         -1.0382676818823190E-008
  0.16490000000000005          1.9348616724228843E-008
  0.16600000000000004          5.7062100249205078E-008
  0.16710000000000003          1.0327993535527582E-007
  0.16820000000000002          1.5935933986804241E-007
  0.16930000000000001          2.2779973280800151E-007
  0.17040000000000000          3.1241892813817661E-007
  0.17150000000000004          4.1839110180041654E-007
  0.17260000000000003          5.5218240055837988E-007
  0.17370000000000002          7.2145218485296914E-007
  0.17480000000000001          9.3500706360600617E-007
  0.17590000000000000          1.2028922481825769E-006
  0.17700000000000005          1.5366823593809263E-006
  0.17810000000000004          1.9499986402807691E-006
  0.17920000000000003          2.4592381124418254E-006
  0.18030000000000002          3.0844610232947650E-006
  0.18140000000000001          3.8503593421796833E-006
  0.18250000000000000          4.7872240596372286E-006
  0.18360000000000004          5.9318492666460925E-006
  0.18470000000000003          7.3283412282932613E-006
  0.18580000000000002          9.0288624421571805E-006
  0.18690000000000001          1.1094375494592235E-005
  0.18800000000000000          1.3595508833981312E-005
  0.18910000000000005          1.6613662157415560E-005
  0.19020000000000004          2.0242477069000858E-005
  0.19130000000000003          2.4589702563925640E-005
  0.19240000000000002          2.9779502600407230E-005
  0.19350000000000001          3.5955066479364525E-005
  0.19460000000000005          4.3281453988374157E-005
  0.19570000000000004          5.1948471407883654E-005
  0.19680000000000003          6.2173465990847149E-005
  0.19790000000000002          7.4203932725650439E-005
  0.19900000000000001          8.8319987943679562E-005
  0.20010000000000000          1.0483659105933698E-004
  0.20120000000000005          1.2410585997075089E-004
  0.20230000000000004          1.4651932615195715E-004
  0.20340000000000003          1.7251051288759878E-004
  0.20450000000000002          2.0255738643216978E-004
  0.20560000000000000          2.3718501255524298E-004
  0.20670000000000005          2.7696778328970836E-004
  0.20780000000000004          3.2253105396288075E-004
  0.20890000000000003          3.7455221965673920E-004
  0.21000000000000002          4.3376050312832068E-004
  0.21110000000000001          5.0093572070674330E-004
  0.21220000000000000          5.7690579796715541E-004
  0.21330000000000005          6.6254260182712374E-004
  0.21440000000000003          7.5875729865883777E-004
  0.21550000000000002          8.6649383763324637E-004
  0.21660000000000001          9.8672139027520460E-004
  0.21770000000000000          1.1204255260254571E-003
  0.21880000000000005          1.2685976674319986E-003
  0.21990000000000004          1.4322222962278865E-003
  0.22100000000000003          1.6122628175560645E-003
  0.22210000000000002          1.8096440751520062E-003
  0.22320000000000001          2.0252337523710071E-003
  0.22430000000000000          2.2598211508238534E-003
  0.22540000000000004          2.5140946168574949E-003
  0.22650000000000003          2.7886167541236488E-003
  0.22760000000000002          3.0837996615443661E-003
  0.22870000000000001          3.3998777693287508E-003
  0.22980000000000000          3.7368817037922641E-003
  0.23090000000000005          4.0946110440187892E-003
  0.23200000000000004          4.4726091286487746E-003
  0.23310000000000003          4.8701358531896798E-003
  0.23420000000000002          5.2861448445011942E-003
  0.23530000000000001          5.7192604502942501E-003
  0.23640000000000000          6.1677596192610418E-003
  0.23750000000000004          6.6295525162804328E-003
  0.23860000000000003          7.1021731341179310E-003
  0.23970000000000002          7.5827720633663831E-003
  0.24080000000000001          8.0681136348766409E-003
  0.24190000000000000          8.5545801548758474E-003
  0.24300000000000005          9.0381865497550524E-003
  0.24410000000000004          9.5145914817442445E-003
  0.24520000000000003          9.9791276583881729E-003
  0.24630000000000002          1.0426834983495606E-002
  0.24740000000000001          1.0852498685422970E-002
  0.24850000000000005          1.1250697303911081E-002
  0.24960000000000004          1.1615858996300299E-002
  0.25070000000000003          1.1942325115326584E-002
  0.25180000000000002          1.2224414607468065E-002
  0.25290000000000001          1.2456503777484321E-002
  0.25400000000000000          1.2633098417537849E-002
  0.25510000000000005          1.2748921661943436E-002
  0.25620000000000004          1.2798993166024787E-002
  0.25730000000000003          1.2778716577435442E-002
  0.25840000000000002          1.2683960998752400E-002
  0.25950000000000001          1.2511145833666989E-002
  0.26060000000000005          1.2257319340587873E-002
  0.26170000000000004          1.1920234148943203E-002
  0.26280000000000003          1.1498410800831714E-002
  0.26390000000000002          1.0991201442599451E-002
  0.26500000000000001          1.0398834917360062E-002
  0.26610000000000000          9.7224541536501015E-003
  0.26720000000000005          8.9641415053757448E-003
  0.26830000000000004          8.1269331254849898E-003
  0.26940000000000003          7.2148132167501721E-003
  0.27050000000000002          6.2327000283640532E-003
  0.27160000000000001          5.1864153541580074E-003
  0.27270000000000005          4.0826384708019837E-003
  0.27380000000000004          2.9288493132950330E-003
  0.27490000000000003          1.7332553678263572E-003
  0.27600000000000002          5.0470859081511979E-004
  0.27710000000000001         -7.4739114537773462E-004
  0.27820000000000000         -2.0132034527757465E-003
  0.27930000000000005         -3.2825643591433535E-003
  0.28040000000000004         -4.5451083259308491E-003
  0.28150000000000003         -5.7903975451584306E-003
  0.28260000000000002         -7.0080518587147126E-003
  0.28370000000000001         -8.1878775907921683E-003
  0.28480000000000005         -9.3199977717184183E-003
  0.28590000000000004         -1.0394976884608447E-002
  0.28700000000000003         -1.1403935812681570E-002
  0.28810000000000002         -1.2338671238334521E-002
  0.28920000000000001         -1.3191756280316352E-002
  0.29030000000000000         -1.3956632192840520E-002
  0.29140000000000005         -1.4627693623128407E-002
  0.29250000000000004         -1.5200351983157990E-002
  0.29360000000000003         -1.5671088771512822E-002
  0.29470000000000002         -1.6037488276491818E-002
  0.29580000000000001         -1.6298265188098276E-002
  0.29690000000000005         -1.6453260905459292E-002
  0.29800000000000004         -1.6503434906535528E-002
  0.29910000000000003         -1.6450829986886493E-002
  0.30020000000000002         -1.6298538263053962E-002
  0.30130000000000001         -1.6050628869082272E-002
  0.30240000000000000         -1.5712090949688427E-002
  0.30350000000000005         -1.5288743695043808E-002
  0.30460000000000004         -1.4787147428043115E-002
  0.30570000000000003         -1.4214502203669380E-002
  0.30680000000000002         -1.3578538275380917E-002
  0.30790000000000001         -1.2887403982761350E-002
  0.30900000000000005         -1.2149545153498063E-002
  0.31010000000000004         -1.1373586000185430E-002
  0.31120000000000003         -1.0568208447557200E-002
  0.31230000000000002         -9.7420398915689689E-003
  0.31340000000000001         -8.9035391741420240E-003
  0.31450000000000006         -8.0608939513806266E-003
  0.31560000000000005         -7.2219201011137282E-003
  0.31670000000000004         -6.3939746630507655E-003
  0.31780000000000003         -5.5838772421303419E-003
  0.31890000000000002         -4.7978418961384306E-003
  0.32000000000000001         -4.0414233854472945E-003
  0.32110000000000005         -3.3194733237605972E-003
  0.32220000000000004         -2.6361118534758976E-003
  0.32330000000000003         -1.9947101464238923E-003
  0.32440000000000002         -1.3978857518321850E-003
  0.32550000000000001         -8.4750936804736145E-004
  0.32660000000000006         -3.4472393289809700E-004
  0.32770000000000005          1.1002496449440022E-004
  0.32880000000000004          5.1694846006010528E-004
  0.32990000000000003          8.7686442207455639E-004
  0.33100000000000002          1.1911396306057910E-003
  0.33210000000000001          1.4616253113180638E-003
  0.33320000000000005          1.6905877859310610E-003
  0.33430000000000004          1.8806356427542694E-003
  0.33540000000000003          2.0346459728155242E-003
  0.33650000000000002          2.1556913092384083E-003
  0.33760000000000001          2.2469679890337033E-003
  0.33870000000000006          2.3117292907870218E-003
  0.33980000000000005          2.3532212684125738E-003
  0.34090000000000004          2.3746255444444604E-003
  0.34200000000000003          2.3790043376937155E-003
  0.34310000000000002          2.3692523038830906E-003
  0.34420000000000001          2.3480538692679971E-003
  0.34530000000000005          2.3178474030776473E-003
  0.34640000000000004          2.2808007397801811E-003
  0.34750000000000003          2.2387930671352529E-003
  0.34860000000000002          2.1934082476142247E-003
  0.34970000000000001          2.1459364095171769E-003
  0.35080000000000006          2.0973835290991256E-003
  0.35190000000000005          2.0484849628574610E-003
  0.35300000000000004          1.9997263016590396E-003
  0.35410000000000003          1.9513671354848662E-003
  0.35520000000000002          1.9034675123785448E-003
  0.35630000000000001          1.8559179005793402E-003
  0.35740000000000005          1.8084716998198326E-003
  0.35850000000000004          1.7607794445123411E-003
  0.35960000000000003          1.7124229370754133E-003
  0.36070000000000002          1.6629502046014934E-003
  0.36180000000000001          1.6119085025374708E-003
  0.36290000000000006          1.5588761381783000E-003
  0.36400000000000005          1.5034904854314165E-003
  0.36510000000000004          1.4454715635182768E-003
  0.36620000000000003          1.3846417125603738E-003
  0.36730000000000002          1.3209377510939593E-003
  0.36840000000000006          1.2544195545476638E-003
  0.36950000000000005          1.1852727603087279E-003
  0.37060000000000004          1.1138070927679299E-003
  0.37170000000000003          1.0404510271111945E-003
  0.37280000000000002          9.6574326549035585E-004
  0.37390000000000001          8.9032065923971468E-004
  0.37500000000000006          8.1490220505416988E-004
  0.37610000000000005          7.4026976489248767E-004
  0.37720000000000004          6.6724540174410674E-004
  0.37830000000000003          5.9666655233716931E-004
  0.37940000000000002          5.2936012680467764E-004
  0.38050000000000006          4.6611700098722798E-004
  0.38160000000000005          4.0766797414472367E-004
  0.38270000000000004          3.5466180807523415E-004
  0.38380000000000003          3.0764586204375978E-004
  0.38490000000000002          2.6704894086170233E-004
  0.38600000000000001          2.3316675060098212E-004
  0.38710000000000000          2.0614993745800744E-004
  0.38819999999999999          1.8599520695119993E-004
  0.38930000000000009          1.7254039333644859E-004
  0.39040000000000008          1.6546395569197610E-004
  0.39150000000000007          1.6428974315529736E-004
  0.39260000000000006          1.6839684770205514E-004
  0.39370000000000005          1.7703421768150191E-004
  0.39480000000000004          1.8933856741254213E-004
  0.39590000000000003          2.0435444795872400E-004
  0.39700000000000002          2.2105498542151580E-004
  0.39810000000000001          2.3836250517636151E-004
  0.39920000000000000          2.5516829166455119E-004
  0.40029999999999999          2.7035184943500953E-004
  0.40140000000000009          2.8280018870779954E-004
  0.40250000000000008          2.9142662096202075E-004
  0.40360000000000007          2.9518957766177341E-004
  0.40470000000000006          2.9311021685195330E-004
  0.40580000000000005          2.8428757193168472E-004
  0.40690000000000004          2.6790995429138440E-004
  0.40800000000000003          2.4326101589014341E-004
  0.40910000000000002          2.0971967891171184E-004
  0.41020000000000001          1.6675370544682528E-004
  0.41130000000000000          1.1390741349894787E-004
  0.41239999999999999          5.0784704962206531E-005
  0.41350000000000009         -2.2971055502018326E-005
  0.41460000000000008         -1.0769880546337187E-004
  0.41570000000000007         -2.0374202731581343E-004
  0.41680000000000006         -3.1147065878814692E-004
  0.41790000000000005         -4.3130278295728689E-004
  0.41900000000000004         -5.6372610000674731E-004
  0.42010000000000003         -7.0931975814928817E-004
  0.42120000000000002         -8.6877580414175916E-004
  0.42230000000000001         -1.0429200279040527E-003
  0.42340000000000000         -1.2327301935999711E-003
  0.42449999999999999         -1.4393504291412445E-003
  0.42560000000000009         -1.6640982209119057E-003
  0.42670000000000008         -1.9084644321613999E-003
  0.42780000000000007         -2.1741027795375927E-003
  0.42890000000000006         -2.4628112410532864E-003
  0.43000000000000005         -2.7765017148647362E-003
  0.43110000000000004         -3.1171637431036152E-003
  0.43220000000000003         -3.4868180926026439E-003
  0.43330000000000002         -3.8874656714497548E-003
  0.43440000000000001         -4.3210299941763494E-003
  0.43550000000000000         -4.7892938370090888E-003
  0.43659999999999999         -5.2938331238937437E-003
  0.43770000000000009         -5.8359477613890987E-003
  0.43880000000000008         -6.4165863880379041E-003
  0.43990000000000007         -7.0362741698830021E-003
  0.44100000000000006         -7.6950337396306627E-003
  0.44210000000000005         -8.3923110811701743E-003
  0.44320000000000004         -9.1269047690831200E-003
  0.44430000000000003         -9.8969000039100981E-003
  0.44540000000000002         -1.0699613084540005E-002
  0.44650000000000001         -1.1531548392290132E-002
  0.44760000000000000         -1.2388364688479259E-002
  0.44869999999999999         -1.3264856608634305E-002
  0.44980000000000009         -1.4154953283565365E-002
  0.45090000000000008         -1.5051732833995187E-002
  0.45200000000000007         -1.5947449254882694E-002
  0.45310000000000006         -1.6833579259361436E-002
  0.45420000000000005         -1.7700892743352622E-002
  0.45530000000000004         -1.8539524094210204E-002
  0.45640000000000003         -1.9339079823472743E-002
  0.45750000000000002         -2.0088745150771907E-002
  0.45860000000000001         -2.0777419821456131E-002
  0.45970000000000000         -2.1393850958490595E-002
  0.46079999999999999         -2.1926791683972293E-002
  0.46190000000000009         -2.2365163639995075E-002
  0.46300000000000008         -2.2698230793091922E-002
  0.46410000000000007         -2.2915770730008795E-002
  0.46520000000000006         -2.3008258175733747E-002
  0.46630000000000005         -2.2967026882334061E-002
  0.46740000000000004         -2.2784439579034334E-002
  0.46850000000000003         -2.2454046876607847E-002
  0.46960000000000002         -2.1970727810841625E-002
  0.47070000000000001         -2.1330815305383700E-002
  0.47180000000000000         -2.0532215469231081E-002
  0.47289999999999999         -1.9574503511924728E-002
  0.47400000000000009         -1.8458987803081330E-002
  0.47510000000000008         -1.7188760688933231E-002
  0.47620000000000007         -1.5768712040288398E-002
  0.47730000000000006         -1.4205523297198586E-002
  0.47840000000000005         -1.2507633139700871E-002