 -0.12000000000000000          0.0000000000000000     
 -0.11889999999999999         -9.6470231989878062E-007
 -0.11780000000000000         -2.9628764303231476E-006
 -0.11670000000000000         -5.9344014199407695E-006
 -0.11559999999999999         -9.7383350868495495E-006
 -0.11449999999999999         -1.4224293299784673E-005
 -0.11340000000000000         -1.9307215431175181E-005
 -0.11230000000000000         -2.5026856351181753E-005
 -0.11119999999999999         -3.1580255930396931E-005
 -0.11009999999999999         -3.9324902547256534E-005
 -0.10900000000000000         -4.8758972372768082E-005
 -0.10790000000000000         -6.0490266263868564E-005
 -0.10679999999999999         -7.5206464779239277E-005
 -0.10569999999999999         -9.3656896582228124E-005
 -0.10460000000000000         -1.1665162661545869E-004
 -0.10349999999999999         -1.4507931257266035E-004
 -0.10239999999999999         -1.7994164655293731E-004
 -0.10130000000000000         -2.2240020358000589E-004
 -0.10020000000000000         -2.7383038829464034E-004
  -9.9099999999999994E-002    -3.3587745177967850E-004
  -9.7999999999999990E-002    -4.1051084460281780E-004
  -9.6899999999999986E-002    -5.0007472436403662E-004
  -9.5799999999999996E-002    -6.0733493134989722E-004
  -9.4699999999999993E-002    -7.3552416754730176E-004
  -9.3599999999999989E-002    -8.8838947198750936E-004
  -9.2499999999999999E-002    -1.0702442532718349E-003
  -9.1399999999999995E-002    -1.2860276656047034E-003
  -9.0299999999999991E-002    -1.5413707313296338E-003
  -8.9200000000000002E-002    -1.8426672822010810E-003
  -8.8099999999999984E-002    -2.1971479259682929E-003
  -8.6999999999999994E-002    -2.6129553305027950E-003
  -8.5899999999999990E-002    -3.0992188319182157E-003
  -8.4799999999999986E-002    -3.6661302987572347E-003
  -8.3699999999999997E-002    -4.3250206516709522E-003
  -8.2599999999999993E-002    -5.0884373222661395E-003
  -8.1499999999999989E-002    -5.9702175159860853E-003
  -8.0399999999999999E-002    -6.9855540491191173E-003
  -7.9299999999999995E-002    -8.1510487383914185E-003
  -7.8199999999999992E-002    -9.4847447924811222E-003
  -7.7100000000000002E-002    -1.1006136877048309E-002
  -7.5999999999999984E-002    -1.2736149502509328E-002
  -7.4899999999999994E-002    -1.4697093972536837E-002
  -7.3799999999999991E-002    -1.6912591673006377E-002
  -7.2699999999999987E-002    -1.9407462698314795E-002
  -7.1599999999999997E-002    -2.2207579749992601E-002
  -7.0499999999999993E-002    -2.5339665041830710E-002
  -6.9399999999999989E-002    -2.8831050854939623E-002
  -6.8300000000000000E-002    -3.2709371514225656E-002
  -6.7199999999999996E-002    -3.7002205926128864E-002
  -6.6099999999999992E-002    -4.1736646920351658E-002
  -6.5000000000000002E-002    -4.6938845652880569E-002
  -6.3899999999999985E-002    -5.2633473266909800E-002
  -6.2799999999999995E-002    -5.8843138709880810E-002
  -6.1699999999999991E-002    -6.5587766106295353E-002
  -6.0599999999999994E-002    -7.2883885784313707E-002
  -5.9499999999999990E-002    -8.0743921592642695E-002
  -5.8399999999999994E-002    -8.9175350289503241E-002
  -5.7299999999999990E-002    -9.8179893271839042E-002
  -5.6199999999999986E-002   -0.10775264952384916     
  -5.5099999999999996E-002   -0.11788119899935429     
  -5.3999999999999992E-002   -0.12854478811705528     
  -5.2899999999999989E-002   -0.13971346696177139     
  -5.1799999999999985E-002   -0.15134732604557080     
  -5.0699999999999995E-002   -0.16339582807425040     
  -4.9599999999999991E-002   -0.17579717119139984     
  -4.8499999999999988E-002   -0.18847782685188541     
  -4.7399999999999998E-002   -0.20135212138657710     
  -4.6299999999999994E-002   -0.21432207399149933     
  -4.5199999999999990E-002   -0.22727739423051235     
  -4.4099999999999986E-002   -0.24009563722053309     
  -4.2999999999999997E-002   -0.25264263484540322     
  -4.1899999999999993E-002   -0.26477311530735032     
  -4.0799999999999989E-002   -0.27633165972874385     
  -3.9699999999999985E-002   -0.28715377654386909     
  -3.8599999999999995E-002   -0.29706730677657661     
  -3.7499999999999992E-002   -0.30589425047819724     
  -3.6399999999999988E-002   -0.31345258517537627     
  -3.5299999999999984E-002   -0.31955854386502558     
  -3.4199999999999994E-002   -0.32402912439614795     
  -3.3099999999999991E-002   -0.32668457274324347     
  -3.1999999999999987E-002   -0.32735137119606728     
  -3.0899999999999997E-002   -0.32586504126454141     
  -2.9799999999999993E-002   -0.32207325893659067     
  -2.8699999999999989E-002   -0.31583883935667645     
  -2.7599999999999986E-002   -0.30704289832001636     
  -2.6499999999999996E-002   -0.29558772424480251     
  -2.5399999999999992E-002   -0.28139964927292893     
  -2.4299999999999988E-002   -0.26443163933324920     
  -2.3199999999999985E-002   -0.24466572101164979     
  -2.2099999999999995E-002   -0.22211498996707402     
  -2.0999999999999991E-002   -0.19682525141386162     
  -1.9899999999999987E-002   -0.16887621376616055     
  -1.8799999999999983E-002   -0.13838222616908405     
  -1.7699999999999994E-002   -0.10549254376412490     
  -1.6599999999999990E-002    -7.0390884737566883E-002
  -1.5499999999999986E-002    -3.3294564437705371E-002
  -1.4399999999999996E-002     5.5470239272751853E-003
  -1.3299999999999992E-002     4.5854504628882298E-002
  -1.2199999999999989E-002     8.7321173434630445E-002
  -1.1099999999999985E-002    0.12961619681983516     
  -9.9999999999999950E-003    0.17238829214902499     
  -8.8999999999999913E-003    0.21526991412194374     
  -7.7999999999999875E-003    0.25788175454026602     
  -6.6999999999999837E-003    0.29983761356412852     
  -5.5999999999999939E-003    0.34074946667670025     
  -4.4999999999999901E-003    0.38023284316781852     
  -3.3999999999999864E-003    0.41791198244660221     
  -2.2999999999999826E-003    0.45342521604896896     
  -1.1999999999999927E-003    0.48642998337625831     
  -9.9999999999988987E-005    0.51660788141372649     
   1.0000000000000148E-003    0.54366908440644890     
   2.1000000000000185E-003    0.56735652395711655     
   3.2000000000000084E-003    0.58744958502841926     
   4.3000000000000121E-003    0.60376724368181445     
   5.4000000000000159E-003    0.61617051376603293     
   6.5000000000000058E-003    0.62456416888712163     
   7.6000000000000234E-003    0.62889818131335995     
   8.7000000000000133E-003    0.62916765057372193     
   9.8000000000000032E-003    0.62541291726897041     
   1.0900000000000021E-002    0.61771835781885343     
   1.2000000000000011E-002    0.60621076563473975     
   1.3100000000000001E-002    0.59105689724441257     
   1.4200000000000018E-002    0.57246065837972970     
   1.5300000000000008E-002    0.55065968696194356     
   1.6400000000000026E-002    0.52592135505874094     
   1.7500000000000016E-002    0.49853854114371454     
   1.8600000000000005E-002    0.46882497042026794     
   1.9700000000000023E-002    0.43711042484361207     
   2.0800000000000013E-002    0.40373596221384744     
   2.1900000000000003E-002    0.36904886911432766     
   2.3000000000000020E-002    0.33339787449328367     
   2.4100000000000010E-002    0.29712857047924390     
   2.5200000000000000E-002    0.26057874047105128     
   2.6300000000000018E-002    0.22407443304538976     
   2.7400000000000008E-002    0.18792604654915984     
   2.8500000000000025E-002    0.15242502450288997     
   2.9600000000000015E-002    0.11784088156292766     
   3.0700000000000005E-002     8.4418829778405369E-002
   3.1800000000000023E-002     5.2377820584979001E-002
   3.2900000000000013E-002     2.1909150694304158E-002
   3.4000000000000002E-002    -6.8244304250200949E-003
   3.5100000000000020E-002    -3.3689116968715793E-002
   3.6200000000000010E-002    -5.8579964217343822E-002
   3.7300000000000028E-002    -8.1420381425077792E-002
   3.8400000000000017E-002   -0.10216116801182504     
   3.9500000000000007E-002   -0.12077927827797749     
   4.0600000000000025E-002   -0.13727620021522929     
   4.1700000000000015E-002   -0.15167606003879897     
   4.2800000000000005E-002   -0.16402361019700268     
   4.3900000000000022E-002   -0.17438193273382666     
   4.5000000000000012E-002   -0.18283013446238994     
   4.6100000000000002E-002   -0.18946099908640335     
   4.7200000000000020E-002   -0.19437852051255955     
   4.8300000000000010E-002   -0.19769554154698193     
   4.9400000000000027E-002   -0.19953151002188568     
   5.0500000000000017E-002   -0.20001023928602030     
   5.1600000000000007E-002   -0.19925790105859562     
   5.2700000000000025E-002   -0.19740112896019149     
   5.3800000000000014E-002   -0.19456534826726218     
   5.4900000000000004E-002   -0.19087329370348302     
   5.6000000000000022E-002   -0.18644367123948119     
   5.7100000000000012E-002   -0.18139016933588437     
   5.8200000000000002E-002   -0.17582049305287040     
   5.9300000000000019E-002   -0.16983566144027601     
   6.0400000000000009E-002   -0.16352956422389825     
   6.1500000000000027E-002   -0.15698855515887872     
   6.2600000000000017E-002   -0.15029135312522940     
   6.3700000000000007E-002   -0.14350891163502971     
   6.4800000000000024E-002   -0.13670458081582687     
   6.5900000000000014E-002   -0.12993422135518345     
   6.7000000000000004E-002   -0.12324650837053255     
   6.8100000000000022E-002   -0.11668328981720216     
   6.9200000000000012E-002   -0.11027996137625753     
   7.0300000000000029E-002   -0.10406590584955322     
   7.1400000000000019E-002    -9.8064965365105478E-002
   7.2500000000000009E-002    -9.2295935615845592E-002
   7.3600000000000027E-002    -8.6773016813606108E-002
   7.4700000000000016E-002    -8.1506284281998992E-002
   7.5800000000000006E-002    -7.6502117073716569E-002
   7.6900000000000024E-002    -7.1763659471820826E-002
   7.8000000000000014E-002    -6.7291174651138791E-002
   7.9100000000000004E-002    -6.3082439471836477E-002
   8.0200000000000021E-002    -5.9133098637806941E-002
   8.1300000000000011E-002    -5.5436967420753686E-002
   8.2400000000000029E-002    -5.1986326808081400E-002
   8.3500000000000019E-002    -4.8772195320065583E-002
   8.4600000000000009E-002    -4.5784562450081508E-002
   8.5700000000000026E-002    -4.3012591493384149E-002
   8.6800000000000016E-002    -4.0444832369525403E-002
   8.7900000000000006E-002    -3.8069385561860798E-002
   8.9000000000000024E-002    -3.5874076288822977E-002
   9.0100000000000013E-002    -3.3846610119176890E-002
   9.1200000000000003E-002    -3.1974714919423365E-002
   9.2300000000000021E-002    -3.0246277335976332E-002
   9.3400000000000011E-002    -2.8649467472729249E-002
   9.4500000000000028E-002    -2.7172843137815469E-002
   9.5600000000000018E-002    -2.5805453239299832E-002
   9.6700000000000008E-002    -2.4536912702894657E-002
   9.7800000000000026E-002    -2.3357478869569844E-002
   9.8900000000000016E-002    -2.2258103502608054E-002
  0.10000000000000001         -2.1230478390041788E-002
  0.10110000000000002         -2.0267062809739413E-002
  0.10220000000000001         -1.9361104602773349E-002
  0.10330000000000003         -1.8506641636623529E-002
  0.10440000000000002         -1.7698500837181944E-002
  0.10550000000000001         -1.6932263434765088E-002
  0.10660000000000003         -1.6204244362883868E-002
  0.10770000000000002         -1.5511442535602320E-002
  0.10880000000000001         -1.4851481055726163E-002
  0.10990000000000003         -1.4222540519311516E-002
  0.11100000000000002         -1.3623281402828315E-002
  0.11210000000000001         -1.3052757080157826E-002
  0.11320000000000002         -1.2510330893967745E-002
  0.11430000000000001         -1.1995580894145510E-002
  0.11540000000000003         -1.1508218761890147E-002
  0.11650000000000002         -1.1048003584138336E-002
  0.11760000000000001         -1.0614668836815755E-002
  0.11870000000000003         -1.0207857884295030E-002
  0.11980000000000002         -9.8270647888355021E-003
  0.12090000000000001         -9.4715996666957878E-003
  0.12200000000000003         -9.1405580320966327E-003
  0.12310000000000001         -8.8328115497819781E-003
  0.12420000000000003         -8.5470139565686463E-003
  0.12530000000000002         -8.2816165668893049E-003
  0.12640000000000001         -8.0348992658646774E-003
  0.12750000000000003         -7.8050031192139942E-003
  0.12860000000000002         -7.5899712094226156E-003
  0.12970000000000001         -7.3877912645262762E-003
  0.13080000000000003         -7.1964440435652172E-003
  0.13190000000000002         -7.0139511769627587E-003
  0.13300000000000001         -6.8384264762836348E-003
  0.13410000000000000         -6.6681291573424733E-003
  0.13520000000000004         -6.5015132511644213E-003
  0.13630000000000003         -6.3372687367166556E-003
  0.13740000000000002         -6.1743565539641356E-003
  0.13850000000000001         -6.0120324461612794E-003
  0.13960000000000000         -5.8498572628883109E-003
  0.14070000000000005         -5.6876985162606598E-003
  0.14180000000000004         -5.5257206003753714E-003
  0.14290000000000003         -5.3643648724580866E-003
  0.14400000000000002         -5.2043204032613168E-003
  0.14510000000000001         -5.0464832767192994E-003
  0.14620000000000000         -4.8919074407963075E-003
  0.14730000000000004         -4.7417489826710223E-003
  0.14840000000000003         -4.5972038298204149E-003
  0.14950000000000002         -4.4594476842918914E-003
  0.15060000000000001         -4.3295775717314793E-003
  0.15170000000000000         -4.2085565959492895E-003
  0.15280000000000005         -4.0971702575295799E-003
  0.15390000000000004         -3.9959867070761572E-003
  0.15500000000000003         -3.9053299826506101E-003
  0.15610000000000002         -3.8252560293995826E-003
  0.15720000000000001         -3.7555440643492147E-003
  0.15830000000000000         -3.6956941815986083E-003
  0.15940000000000004         -3.6449385689300427E-003
  0.16050000000000003         -3.6022626607416595E-003
  0.16160000000000002         -3.5664353942686015E-003
  0.16270000000000001         -3.5360495819053810E-003
  0.16380000000000000         -3.5095659004313442E-003
  0.16490000000000005         -3.4853623384658722E-003
  0.16600000000000004         -3.4617867596011902E-003
  0.16710000000000003         -3.4372089324804546E-003
  0.16820000000000002         -3.4100744560767110E-003
  0.16930000000000001         -3.3789573758135631E-003
  0.17040000000000000         -3.3426088530229374E-003
  0.17150000000000004         -3.3000010811907667E-003
  0.17260000000000003         -3.2503644565257594E-003
  0.17370000000000002         -3.1932130730951084E-003
  0.17480000000000001         -3.1283623667202986E-003
  0.17590000000000000         -3.0559337549290605E-003
  0.17700000000000005         -2.9763477704433201E-003
  0.17810000000000004         -2.8903074241782684E-003
  0.17920000000000003         -2.7987699046476975E-003
  0.18030000000000002         -2.7029079375502207E-003
  0.18140000000000001         -2.6040630510419660E-003
  0.18250000000000000         -2.5036933157750480E-003
  0.18360000000000004         -2.4033168757756473E-003
  0.18470000000000003         -2.3044566261786288E-003
  0.18580000000000002         -2.2085873037720064E-003
  0.18690000000000001         -2.1170881172843346E-003
  0.18800000000000000         -2.0312006900628961E-003
  0.18910000000000005         -1.9519921540300795E-003
  0.19020000000000004         -1.8803231000133385E-003
  0.19130000000000003         -1.8168229896264863E-003
  0.19240000000000002         -1.7618709970775547E-003
  0.19350000000000001         -1.7155856266665103E-003
  0.19460000000000005         -1.6778235169151766E-003
  0.19570000000000004         -1.6481886586391880E-003
  0.19680000000000003         -1.6260508410215397E-003
  0.19790000000000002         -1.6105736176999365E-003
  0.19900000000000001         -1.6007482730625287E-003
  0.20010000000000000         -1.5954343056822965E-003
  0.20120000000000005         -1.5934045230526434E-003
  0.20230000000000004         -1.5933926032192904E-003
  0.20340000000000003         -1.5941441527152164E-003
  0.20450000000000002         -1.5944662613491137E-003
  0.20560000000000000         -1.5932745553399780E-003
  0.20670000000000005         -1.5896349971090337E-003
  0.20780000000000004         -1.5827961492616437E-003
  0.20890000000000003         -1.5722116517723275E-003
  0.21000000000000002         -1.5575531483836777E-003
  0.21110000000000001         -1.5387131106613522E-003
  0.21220000000000000         -1.5158002574513644E-003
  0.21330000000000005         -1.4891288130613172E-003
  0.21440000000000003         -1.4592005558365273E-003
  0.21550000000000002         -1.4266819668940418E-003
  0.21660000000000001         -1.3923742633416768E-003
  0.21770000000000000         -1.3571775284557924E-003
  0.21880000000000005         -1.3220505955176679E-003
  0.21990000000000004         -1.2879676708746723E-003
  0.22100000000000003         -1.2558746093293764E-003
  0.22210000000000002         -1.2266477358010603E-003
  0.22320000000000001         -1.2010577317242384E-003
  0.22430000000000000         -1.1797370502729765E-003
  0.22540000000000004         -1.1631548491654621E-003
  0.22650000000000003         -1.1515967842782198E-003
  0.22760000000000002         -1.1451506099509168E-003
  0.22870000000000001         -1.1436986041184905E-003
  0.22980000000000000         -1.1469165994008941E-003
  0.23090000000000005         -1.1542811701678514E-003
  0.23200000000000004         -1.1650858346521258E-003
  0.23310000000000003         -1.1784658211527442E-003
  0.23420000000000002         -1.1934298502449270E-003
  0.23530000000000001         -1.2088990664140267E-003
  0.23640000000000000         -1.2237496304383577E-003
  0.23750000000000004         -1.2368572052149753E-003
  0.23860000000000003         -1.2471414027844525E-003
  0.23970000000000002         -1.2536075651449670E-003
  0.24080000000000001         -1.2553849801003264E-003
  0.24190000000000000         -1.2517596404174693E-003
  0.24300000000000005         -1.2421989234373777E-003
  0.24410000000000004         -1.2263699360933870E-003
  0.24520000000000003         -1.2041495715492360E-003
  0.24630000000000002         -1.1756281510972451E-003
  0.24740000000000001         -1.1411054184119018E-003
  0.24850000000000005         -1.1010818065465059E-003
  0.24960000000000004         -1.0562428474616772E-003
  0.25070000000000003         -1.0074381807232346E-003
  0.25180000000000002         -9.5565490193615706E-004
  0.25290000000000001         -9.0198447418182942E-004
  0.25400000000000000         -8.4758581916722395E-004
  0.25510000000000005         -7.9364493592100035E-004
  0.25620000000000004         -7.4133393023321234E-004
  0.25730000000000003         -6.9177150099272407E-004
  0.25840000000000002         -6.4598662738691171E-004
  0.25950000000000001         -6.0488545909459014E-004
  0.26060000000000005         -5.6922275174396502E-004
  0.26170000000000004         -5.3957666350493508E-004
  0.26280000000000003         -5.1632923212714774E-004
  0.26390000000000002         -4.9965230727396198E-004
  0.26500000000000001         -4.8950236781003693E-004
  0.26610000000000000         -4.8562458978800157E-004
  0.26720000000000005         -4.8756746600593214E-004
  0.26830000000000004         -4.9470666769764308E-004
  0.26940000000000003         -5.0627574826166220E-004
  0.27050000000000002         -5.2140080649945445E-004
  0.27160000000000001         -5.3913654331725843E-004
  0.27270000000000005         -5.5850124068063253E-004
  0.27380000000000004         -5.7851047893985150E-004
  0.27490000000000003         -5.9820967107687641E-004
  0.27600000000000002         -6.1670530769843189E-004
  0.27710000000000001         -6.3319419972638670E-004
  0.27820000000000000         -6.4699010171617678E-004
  0.27930000000000005         -6.5754617769933578E-004
  0.28040000000000004         -6.6447137508958616E-004
  0.28150000000000003         -6.6754020348434721E-004
  0.28260000000000002         -6.6669594706208948E-004
  0.28370000000000001         -6.6204752023248949E-004
  0.28480000000000005         -6.5386098377397334E-004
  0.28590000000000004         -6.4254588707276042E-004
  0.28700000000000003         -6.2863688694272035E-004
  0.28810000000000002         -6.1276995757421576E-004
  0.28920000000000001         -5.9565475614153170E-004
  0.29030000000000000         -5.7804258383984417E-004
  0.29140000000000005         -5.6069284359803258E-004
  0.29250000000000004         -5.4433837390468478E-004
  0.29360000000000003         -5.2965326866100159E-004
  0.29470000000000002         -5.1722300245536960E-004
  0.29580000000000001         -5.0751904878581686E-004
  0.29690000000000005         -5.0087788440949610E-004
  0.29800000000000004         -4.9748539513702096E-004
  0.29910000000000003         -4.9736744158469022E-004
  0.30020000000000002         -5.0038680252009391E-004
  0.30130000000000001         -5.0624747263158267E-004
  0.30240000000000000         -5.1450598815452008E-004
  0.30350000000000005         -5.2458922984577035E-004
  0.30460000000000004         -5.3581684903220570E-004
  0.30570000000000003         -5.4742675368096036E-004
  0.30680000000000002         -5.5860265335986670E-004
  0.30790000000000001         -5.6850164492640396E-004
  0.30900000000000005         -5.7628211265653060E-004
  0.31010000000000004         -5.8113105156102382E-004
  0.31120000000000003         -5.8229138803016917E-004
  0.31230000000000002         -5.7908786690502221E-004
  0.31340000000000001         -5.7095074949109459E-004
  0.31450000000000006         -5.5743594931801017E-004
  0.31560000000000005         -5.3824072827472541E-004
  0.31670000000000004         -5.1321378896519959E-004
  0.31780000000000003         -4.8235999010281020E-004
  0.31890000000000002         -4.4584016952695500E-004
  0.32000000000000001         -4.0396666684250110E-004
  0.32110000000000005         -3.5719417637660329E-004
  0.32220000000000004         -3.0610637148164042E-004
  0.32330000000000003         -2.5139710451589588E-004
  0.32440000000000002         -1.9384690540154834E-004
  0.32550000000000001         -1.3429464373506384E-004
  0.32660000000000006         -7.3606841869985169E-005
  0.32770000000000005         -1.2646561936819993E-005
  0.32880000000000004          4.7755236779896111E-005
  0.32990000000000003          1.0682396162025318E-004
  0.33100000000000002          1.6386020739237424E-004
  0.33210000000000001          2.1825327334537494E-004
  0.33320000000000005          2.6949007352544457E-004
  0.33430000000000004          3.1716016771420150E-004
  0.33540000000000003          3.6095748040593234E-004
  0.33650000000000002          4.0067795322706976E-004
  0.33760000000000001          4.3621320765892263E-004
  0.33870000000000006          4.6753949121538857E-004
  0.33980000000000005          4.9470265312786068E-004
  0.34090000000000004          5.1779972883299438E-004
  0.34200000000000003          5.3695888447681766E-004
  0.34310000000000002          5.5231859476717691E-004
  0.34420000000000001          5.6400690455531621E-004
  0.34530000000000005          5.7212079588274184E-004
  0.34640000000000004          5.7670572675688975E-004
  0.34750000000000003          5.7773625399453019E-004
  0.34860000000000002          5.7509809417824833E-004
  0.34970000000000001          5.6857386710681198E-004
  0.35080000000000006          5.5783449784839163E-004
  0.35190000000000005          5.4243733241242224E-004
  0.35300000000000004          5.2183118733606533E-004
  0.35410000000000003          4.9536818133411303E-004
  0.35520000000000002          4.6232055335325016E-004
  0.35630000000000001          4.2190157073488977E-004
  0.35740000000000005          3.7328946971703584E-004
  0.35850000000000004          3.1565450775787021E-004
  0.35960000000000003          2.4818877586458969E-004
  0.36070000000000002          1.7013880954197319E-004
  0.36180000000000001          8.0839862648287740E-005
  0.36290000000000006         -2.0249770185909585E-005
  0.36400000000000005         -1.3351655256930582E-004
  0.36510000000000004         -2.5916337434305956E-004
  0.36620000000000003         -3.9718665343049298E-004
  0.36730000000000002         -5.4735914925796263E-004
  0.36840000000000006         -7.0921856171498915E-004
  0.36950000000000005         -8.8206174422335499E-004
  0.37060000000000004         -1.0649439026544378E-003
  0.37170000000000003         -1.2566839983109376E-003
  0.37280000000000002         -1.4558757123953321E-003
  0.37390000000000001         -1.6609049514892172E-003
  0.37500000000000006         -1.8699737346884681E-003
  0.37610000000000005         -2.0811295347290619E-003
  0.37720000000000004         -2.2922999993615777E-003
  0.37830000000000003         -2.5013304626123030E-003
  0.37940000000000002         -2.7060250704629609E-003
  0.38050000000000006         -2.9041882375451314E-003
  0.38160000000000005         -3.0936688634624135E-003
  0.38270000000000004         -3.2724027082727375E-003
  0.38380000000000003         -3.4384548863283892E-003
  0.38490000000000002         -3.5900578782982837E-003
  0.38600000000000001         -3.7256464084807913E-003
  0.38710000000000000         -3.8438848991600686E-003
  0.38819999999999999         -3.9436891225125975E-003
  0.38930000000000009         -4.0242404537152139E-003
  0.39040000000000008         -4.0849933268740438E-003
  0.39150000000000007         -4.1256766472024895E-003
  0.39260000000000006         -4.1462913918359108E-003
  0.39370000000000005         -4.1471000007519670E-003
  0.39480000000000004         -4.1286142877875820E-003
  0.39590000000000003         -4.0915744990977880E-003
  0.39700000000000002         -4.0369244961572705E-003
  0.39810000000000001         -3.9657838880458873E-003
  0.39920000000000000         -3.8794175946559283E-003
  0.40029999999999999         -3.7792017770108483E-003
  0.40140000000000009         -3.6665945153564615E-003
  0.40250000000000008         -3.5431046426718919E-003
  0.40360000000000007         -3.4102638646958247E-003
  0.40470000000000006         -3.2695991479181558E-003
  0.40580000000000005         -3.1226064724623470E-003
  0.40690000000000004         -2.9707257142743589E-003
  0.40800000000000003         -2.8153188283838969E-003
  0.40910000000000002         -2.6576533400690812E-003
  0.41020000000000001         -2.4988905220912749E-003
  0.41130000000000000         -2.3400821929215388E-003
  0.41239999999999999         -2.1821710782947814E-003
  0.41350000000000009         -2.0259963743383185E-003
  0.41460000000000008         -1.8723011326179919E-003
  0.41570000000000007         -1.7217387145600201E-003
  0.41680000000000006         -1.5748813373929686E-003
  0.41790000000000005         -1.4322280318008330E-003
  0.41900000000000004         -1.2942142857519147E-003
  0.42010000000000003         -1.1612233228744722E-003
  0.42120000000000002         -1.0335984492042052E-003
  0.42230000000000001         -9.1165399409258137E-004
  0.42340000000000000         -7.9568502585935141E-004
  0.42449999999999999         -6.8597343861550122E-004
  0.42560000000000009         -5.8279085368517845E-004
  0.42670000000000008         -4.8639876176897708E-004
  0.42780000000000007         -3.9704681279999074E-004
  0.42890000000000006         -3.1497047179770607E-004
  0.43000000000000005         -2.4038790622621630E-004
  0.43110000000000004         -1.7349551723506285E-004
  0.43220000000000003         -1.1446217587994669E-004
  0.43330000000000002         -6.3421511775314403E-005
  0.43440000000000001         -2.0463069845685907E-005
  0.43550000000000000          1.4376787605150785E-005
  0.43659999999999999          4.1122937432254167E-005
  0.43770000000000009          5.9867644733187236E-005
  0.43880000000000008          7.0774370781611696E-005
  0.43990000000000007          7.4079190570383699E-005
  0.44100000000000006          7.0089823491937604E-005
  0.44210000000000005          5.9182041447721818E-005
  0.44320000000000004          4.1792894763642568E-005
  0.44430000000000003          1.8410113035029099E-005
  0.44540000000000002         -1.0442496022156311E-005
  0.44650000000000001         -4.4223262054947918E-005
  0.44760000000000000         -8.2393245282659549E-005
  0.44869999999999999         -1.2443774247193585E-004
  0.44980000000000009         -1.6988729374301995E-004
  0.45090000000000008         -2.1833766285500719E-004
  0.45200000000000007         -2.6946869300050055E-004
  0.45310000000000006         -3.2306278696793384E-004
  0.45420000000000005         -3.7902329875368025E-004
  0.45530000000000004         -4.3739256886757939E-004
  0.45640000000000003         -4.9836863800756563E-004
  0.45750000000000002         -5.6231936594765026E-004
  0.45860000000000001         -6.2979144854714841E-004
  0.45970000000000000         -7.0151429082499156E-004
  0.46079999999999999         -7.7839833449370771E-004
  0.46190000000000009         -8.6152866957986234E-004
  0.46300000000000008         -9.5215463741460675E-004
  0.46410000000000007         -1.0516767566539121E-003
  0.46520000000000006         -1.1616303773588886E-003
  0.46630000000000005         -1.2836657772260648E-003
  0.46740000000000004         -1.4195235665887564E-003
  0.46850000000000003         -1.5710044713026490E-003
  0.46960000000000002         -1.7399345279939817E-003
  0.47070000000000001         -1.9281269772740352E-003
  0.47180000000000000         -2.1373412022832800E-003
  0.47289999999999999         -2.3692437356416748E-003
  0.47400000000000009         -2.6253691616872684E-003
  0.47510000000000008         -2.9070826479016725E-003
  0.47620000000000007         -3.2155451553538966E-003
  0.47730000000000006         -3.5516761557757440E-003
  0.47840000000000005         -3.9161176998265511E-003