 -0.12000000000000000          0.0000000000000000     
 -0.11889999999999999          0.0000000000000000     
 -0.11780000000000000          0.0000000000000000     
 -0.11670000000000000          0.0000000000000000     
 -0.11559999999999999          0.0000000000000000     
 -0.11449999999999999          0.0000000000000000     
 -0.11340000000000000          0.0000000000000000     
 -0.11230000000000000          0.0000000000000000     
 -0.11119999999999999          0.0000000000000000     
 -0.11009999999999999          0.0000000000000000     
 -0.10900000000000000          0.0000000000000000     
 -0.10790000000000000          0.0000000000000000     
 -0.10679999999999999          0.0000000000000000     
 -0.10569999999999999          0.0000000000000000     
 -0.10460000000000000          0.0000000000000000     
 -0.10349999999999999          0.0000000000000000     
 -0.10239999999999999          0.0000000000000000     
 -0.10130000000000000          0.0000000000000000     
 -0.10020000000000000          0.0000000000000000     
  -9.9099999999999994E-002     0.0000000000000000     
  -9.7999999999999990E-002     0.0000000000000000     
  -9.6899999999999986E-002     0.0000000000000000     
  -9.5799999999999996E-002     0.0000000000000000     
  -9.4699999999999993E-002     0.0000000000000000     
  -9.3599999999999989E-002     0.0000000000000000     
  -9.2499999999999999E-002     0.0000000000000000     
  -9.1399999999999995E-002     0.0000000000000000     
  -9.0299999999999991E-002     0.0000000000000000     
  -8.9200000000000002E-002     0.0000000000000000     
  -8.8099999999999984E-002     0.0000000000000000     
  -8.6999999999999994E-002    -2.8025969286496341E-045
  -8.5899999999999990E-002    -2.8025969286496341E-045
  -8.4799999999999986E-002     1.8216880036222622E-044
  -8.3699999999999997E-002     6.4459729358941585E-044
  -8.2599999999999993E-002     8.4077907859489024E-045
  -8.1499999999999989E-002    -4.1198174851149622E-043
  -8.0399999999999999E-002    -9.2065309106140482E-043
  -7.9299999999999995E-002     4.9605965637098524E-043
  -7.8199999999999992E-002     6.0718262459194324E-042
  -7.7100000000000002E-002     9.5946905852320225E-042
  -7.5999999999999984E-002    -1.1159940969882843E-041
  -7.4899999999999994E-002    -6.7450100281810745E-041
  -7.3799999999999991E-002    -8.0136055279343314E-041
  -7.2699999999999987E-002     1.4089355409553873E-040
  -7.1599999999999997E-002     6.0654923768606842E-040
  -7.0499999999999993E-002     5.7558194292295429E-040
  -6.9399999999999989E-002    -1.3041702638670710E-039
  -6.8300000000000000E-002    -4.6321350062690440E-039
  -6.7199999999999996E-002    -3.7808041502377878E-039
  -6.6099999999999992E-002     9.6712028826826218E-039
  -6.5000000000000002E-002     3.1008605041842428E-038
  -6.3899999999999985E-002     2.3758082197850033E-038
  -6.2799999999999995E-002    -5.9826324776263863E-038
  -6.1699999999999991E-002    -1.8558276699527920E-037
  -6.0599999999999994E-002    -1.4543744933750924E-037
  -5.9499999999999990E-002     3.1374763209531731E-037
  -5.8399999999999994E-002     1.0035456573655030E-036
  -5.7299999999999990E-002     8.6048012428142399E-037
  -5.6199999999999986E-002    -1.3887681207191508E-036
  -5.5099999999999996E-002    -4.9199507470821765E-036
  -5.3999999999999992E-002    -4.8205861751688575E-036
  -5.2899999999999989E-002     5.0041240777618922E-036
  -5.1799999999999985E-002     2.1810250180879493E-035
  -5.0699999999999995E-002     2.5055983512013611E-035
  -4.9599999999999991E-002    -1.2861584195800709E-035
  -4.8499999999999988E-002    -8.6642244768004888E-035
  -4.7399999999999998E-002    -1.1894239588795316E-034
  -4.6299999999999994E-002     7.2710962147885525E-036
  -4.5199999999999990E-002     3.0282692869137695E-034
  -4.4099999999999986E-002     5.0928958556722752E-034
  -4.2999999999999997E-002     1.6808995244907724E-034
  -4.1899999999999993E-002    -8.9656552074849017E-034
  -4.0799999999999989E-002    -1.9422059493713166E-033
  -3.9699999999999985E-002    -1.3326225888612065E-033
  -3.8599999999999995E-002     2.0402495250695881E-033
  -3.7499999999999992E-002     6.4802373392222745E-033
  -3.6399999999999988E-002     6.7689108337933963E-033
  -3.5299999999999984E-002    -2.2509792953155456E-033
  -3.4199999999999994E-002    -1.8313320365048123E-032
  -3.3099999999999991E-002    -2.6959483922161204E-032
  -3.1999999999999987E-002    -8.5604781004617984E-033
  -3.0899999999999997E-002     4.0631300190798229E-032
  -2.9799999999999993E-002     8.7721724372910026E-032
  -2.8699999999999989E-002     7.0087099181196167E-032
  -2.7599999999999986E-002    -5.3212090193927179E-032
  -2.6499999999999996E-002    -2.3000500645449122E-031
  -2.5399999999999992E-002    -2.9445555144877698E-031
  -2.4299999999999988E-002    -6.6552170201818647E-032
  -2.3199999999999985E-002     4.4610137567095700E-031
  -2.2099999999999995E-002     8.9771600792636665E-031
  -2.0999999999999991E-002     7.2109224530288594E-031
  -1.9899999999999987E-002    -4.1063116277331270E-031
  -1.8799999999999983E-002    -2.0298442092372145E-030
  -1.7699999999999994E-002    -2.7703783787863165E-030
  -1.6599999999999990E-002    -1.1573242174241130E-030
  -1.5499999999999986E-002     2.9119635700377749E-030
  -1.4399999999999996E-002     7.0696780610995915E-030
  -1.3299999999999992E-002     7.1629660450972327E-030
  -1.2199999999999989E-002     2.1805439015663046E-031
  -1.1099999999999985E-002    -1.1808655888812512E-029
  -9.9999999999999950E-003    -2.0714590790529347E-029
  -8.8999999999999913E-003    -1.5986435786324221E-029
  -7.7999999999999875E-003     6.6095553417922522E-030
  -6.6999999999999837E-003     3.7229754531898626E-029
  -5.5999999999999939E-003     5.2818303724141828E-029
  -4.4999999999999901E-003     3.0786333217301309E-029
  -3.3999999999999864E-003    -3.0108604488402517E-029
  -2.2999999999999826E-003    -9.7170448116938263E-029
  -1.1999999999999927E-003    -1.1559379766844934E-028
  -9.9999999999988987E-005    -4.6594561803091718E-029
   1.0000000000000148E-003     8.9977286349115300E-029
   2.1000000000000185E-003     2.0600062056194268E-028
   3.2000000000000084E-003     1.9412326615016077E-028
   4.3000000000000121E-003     1.8537919813710584E-029
   5.4000000000000159E-003    -2.1848165771479277E-028
   6.5000000000000058E-003    -3.1160159830625517E-028
   7.6000000000000234E-003    -1.0843641606787445E-028
   8.7000000000000133E-003     3.0257803873781766E-028
   9.8000000000000032E-003     5.4297593662538650E-028
   1.0900000000000021E-002     1.6494724508907916E-028
   1.2000000000000011E-002    -9.1441006347617967E-028
   1.3100000000000001E-002    -2.0584061911698785E-027
   1.4200000000000018E-002    -2.0195083766760839E-027
   1.5300000000000008E-002     3.1464382132053356E-028
   1.6400000000000026E-002     4.8258673728972283E-027
   1.7500000000000016E-002     9.4270927363371739E-027
   1.8600000000000005E-002     1.0396620507409286E-026
   1.9700000000000023E-002     3.9797385555938731E-027
   2.0800000000000013E-002    -1.1280064602571132E-026
   2.1900000000000003E-002    -3.2397491241952585E-026
   2.3000000000000020E-002    -5.0680310307653594E-026
   2.4100000000000010E-002    -5.1718608414807908E-026
   2.5200000000000000E-002    -1.7588072964258357E-026
   2.6300000000000018E-002     6.6101329979975344E-026
   2.7400000000000008E-002     1.9492796108841956E-025
   2.8500000000000025E-002     3.2291044939851907E-025
   2.9600000000000015E-002     3.4476349884685483E-025
   3.0700000000000005E-002     1.1087891152711494E-025
   3.1800000000000023E-002    -4.9265103088150832E-025
   3.2900000000000013E-002    -1.3924615739401688E-024
   3.4000000000000002E-002    -2.1641785595384650E-024
   3.5100000000000020E-002    -2.0001615583533068E-024
   3.6200000000000010E-002     8.8647797408464104E-027
   3.7300000000000028E-002     4.1886833793507606E-024
   3.8400000000000017E-002     9.3759321360792450E-024
   3.9500000000000007E-002     1.2357470581546415E-023
   4.0600000000000025E-002     8.4795242459276423E-024
   4.1700000000000015E-002    -5.9517090108596525E-024
   4.2800000000000005E-002    -2.9768227927479398E-023
   4.3900000000000022E-002    -5.3317328913686009E-023
   4.5000000000000012E-002    -5.8252272342793131E-023
   4.6100000000000002E-002    -2.3894260764398823E-023
   4.7200000000000020E-002     5.9098265710213870E-023
   4.8300000000000010E-002     1.7198890606035060E-022
   4.9400000000000027E-002     2.5814383864219682E-022
   5.0500000000000017E-002     2.3297082015093844E-022
   5.1600000000000007E-002     2.2064409542317302E-023
   5.2700000000000025E-002    -3.7783849896317341E-022
   5.3800000000000014E-002    -8.4080137524338679E-022
   5.4900000000000004E-002    -1.0993044548309340E-021
   5.6000000000000022E-002    -8.1988487349185822E-022
   5.7100000000000012E-002     2.2072921351484637E-022
   5.8200000000000002E-002     1.9057443617074398E-021
   5.9300000000000019E-002     3.6099377661132382E-021
   6.0400000000000009E-002     4.2463284433666998E-021
   6.1500000000000027E-002     2.6443288011668881E-021
   6.2600000000000017E-002    -1.7613033998469442E-021
   6.3700000000000007E-002    -8.1637726216804434E-021
   6.4800000000000024E-002    -1.3972245384344174E-020
   6.5900000000000014E-002    -1.5239035333965056E-020
   6.7000000000000004E-002    -8.1928378420127388E-021
   6.8100000000000022E-002     8.3699595062627897E-021
   6.9200000000000012E-002     3.0755693161018223E-020
   7.0300000000000029E-002     4.9537520440328022E-020
   7.1400000000000019E-002     5.1596870585809747E-020
   7.2500000000000009E-002     2.5528307508530891E-020
   7.3600000000000027E-002    -3.0796952025243573E-020
   7.4700000000000016E-002    -1.0364262236324876E-019
   7.5800000000000006E-002    -1.6210275266307876E-019
   7.6900000000000024E-002    -1.6572970700457650E-019
   7.8000000000000014E-002    -8.1657408914856648E-020
   7.9100000000000004E-002     9.3238460940830416E-020
   8.0200000000000021E-002     3.1472707533145965E-019
   8.1300000000000011E-002     4.9015616002716518E-019
   8.2400000000000029E-002     5.0295538413913960E-019
   8.3500000000000019E-002     2.6234501001153248E-019
   8.4600000000000009E-002    -2.3588200295110087E-019
   8.5700000000000026E-002    -8.6441459686345368E-019
   8.6800000000000016E-002    -1.3666628449764370E-018
   8.7900000000000006E-002    -1.4273598073619296E-018
   8.9000000000000024E-002    -8.0665872684468162E-019
   9.0100000000000013E-002     5.0252457813636432E-019
   9.1200000000000003E-002     2.1644580730636715E-018
   9.2300000000000021E-002     3.5154754171391274E-018
   9.3400000000000011E-002     3.7515804745122820E-018
   9.4500000000000028E-002     2.2691923735026857E-018
   9.5600000000000018E-002    -9.4689815241509766E-019
   9.6700000000000008E-002    -5.0634091030922726E-018
   9.7800000000000026E-002    -8.4509395318041479E-018
   9.8900000000000016E-002    -9.1540959920334248E-018
  0.10000000000000001         -5.7196664905413242E-018
  0.10110000000000002          1.8795770701004088E-018
  0.10220000000000001          1.1642513354944049E-017
  0.10330000000000003          1.9686600793741540E-017
  0.10440000000000002          2.1376439795319994E-017
  0.10550000000000001          1.3279495515380365E-017
  0.10660000000000003         -4.6697646029262499E-018
  0.10770000000000002         -2.7762186443084437E-017
  0.10880000000000001         -4.6843499477951524E-017
  0.10990000000000003         -5.0913654916908498E-017
  0.11100000000000002         -3.1654342540387350E-017
  0.11210000000000001          1.1502910082963474E-017
  0.11320000000000002          6.7945144910697727E-017
  0.11430000000000001          1.1632877858860663E-016
  0.11540000000000003          1.3021082803093696E-016
  0.11650000000000002          8.8260852956232797E-017
  0.11760000000000001         -1.3865836702324291E-017
  0.11870000000000003         -1.5475223124909103E-016
  0.11980000000000002         -2.8665802514704305E-016
  0.12090000000000001         -3.4648960027466944E-016
  0.12200000000000003         -2.7771446895478091E-016
  0.12310000000000001         -5.7621884543921639E-017
  0.12420000000000003          2.7996794717139177E-016
  0.12530000000000002          6.3793068812595952E-016
  0.12640000000000001          8.7349558001550477E-016
  0.12750000000000003          8.4136931439204366E-016
  0.12860000000000002          4.5302514274579947E-016
  0.12970000000000001         -2.6693549824493711E-016
  0.13080000000000003         -1.1514373184979458E-015
  0.13190000000000002         -1.9093600703604888E-015
  0.13300000000000001         -2.1996806130319003E-015
  0.13410000000000000         -1.7493476056902710E-015
  0.13520000000000004         -4.8181849254049251E-016
  0.13630000000000003          1.3909633070257666E-015
  0.13740000000000002          3.3600047894542014E-015
  0.13850000000000001          4.7221375301751550E-015
  0.13960000000000000          4.7873332326088449E-015
  0.14070000000000005          3.1414173495033886E-015
  0.14180000000000004         -1.1962670136874125E-016
  0.14290000000000003         -4.2798046431412242E-015
  0.14400000000000002         -8.0930067877273137E-015
  0.14510000000000001         -1.0093448734422531E-014
  0.14620000000000000         -9.0711138484044808E-015
  0.14730000000000004         -4.5812213174216670E-015
  0.14840000000000003          2.6896192928003645E-015
  0.14950000000000002          1.0871234197139951E-014
  0.15060000000000001          1.7272079220424091E-014
  0.15170000000000000          1.9132327896986302E-014
  0.15280000000000005          1.4598551859555664E-014
  0.15390000000000004          3.6293650783293316E-015
  0.15500000000000003         -1.1506910401197674E-014
  0.15610000000000002         -2.6422869223012048E-014
  0.15720000000000001         -3.5601265723416917E-014
  0.15830000000000000         -3.4044568244162229E-014
  0.15940000000000004         -1.9185601187170914E-014
  0.16050000000000003          7.5278833459781896E-015
  0.16160000000000002          3.9997495468674718E-014
  0.16270000000000001          6.8248141513183036E-014
  0.16380000000000000          8.0720694885239030E-014
  0.16490000000000005          6.7724058511794277E-014
  0.16600000000000004          2.5224858009667561E-014
  0.16710000000000003         -4.2154563124679675E-014
  0.16820000000000002         -1.2008311554324858E-013
  0.16930000000000001         -1.8623896370396908E-013
  0.17040000000000000         -2.1497196113062084E-013
  0.17150000000000004         -1.8423636097622542E-013
  0.17260000000000003         -8.3289610288989763E-014
  0.17370000000000002          8.0910775854866473E-014
  0.17480000000000001          2.8076358512402200E-013
  0.17590000000000000          4.7016871732724619E-013
  0.17700000000000005          5.9232252349467052E-013
  0.17810000000000004          5.9228929269808384E-013
  0.17920000000000003          4.3201805522731507E-013
  0.18030000000000002          1.0438808292160401E-013
  0.18140000000000001         -3.5749606942282741E-013
  0.18250000000000000         -8.7896969433801098E-013
  0.18360000000000004         -1.3521683772665938E-012
  0.18470000000000003         -1.6537075528400003E-012
  0.18580000000000002         -1.6690286305798274E-012
  0.18690000000000001         -1.3188925862897549E-012
  0.18800000000000000         -5.8254638092558597E-013
  0.18910000000000005          4.8763478064511867E-013
  0.19020000000000004          1.7637220893831906E-012
  0.19130000000000003          3.0533390486114920E-012
  0.19240000000000002          4.1229272600140643E-012
  0.19350000000000001          4.7295457480944769E-012
  0.19460000000000005          4.6563187333648060E-012
  0.19570000000000004          3.7466618349468739E-012
  0.19680000000000003          1.9336140761466725E-012
  0.19790000000000002         -7.3766058365787313E-013
  0.19900000000000001         -4.0945389440105728E-012
  0.20010000000000000         -7.8285902066488333E-012
  0.20120000000000005         -1.1494952559254479E-011
  0.20230000000000004         -1.4522521206428163E-011
  0.20340000000000003         -1.6240946087986430E-011
  0.20450000000000002         -1.5932595520684600E-011
  0.20560000000000000         -1.2917562852710063E-011
  0.20670000000000005         -6.6757745165180182E-012
  0.20780000000000004          2.9977951544746251E-012
  0.20890000000000003          1.5820650345332865E-011
  0.21000000000000002          3.0862163519218555E-011
  0.21110000000000001          4.6435671280375956E-011
  0.21220000000000000          6.0090439568671883E-011
  0.21330000000000005          6.8747681158942697E-011
  0.21440000000000003          6.9010901160293514E-011
  0.21550000000000002          5.7654808011120551E-011
  0.21660000000000001          3.2262362920087995E-011
  0.21770000000000000         -8.0598878265947249E-012
  0.21880000000000005         -6.1994222255723486E-011
  0.21990000000000004         -1.2548369288101213E-010
  0.22100000000000003         -1.9150256380662256E-010
  0.22210000000000002         -2.5024937677642356E-010
  0.22320000000000001         -2.8984589728331400E-010
  0.22430000000000000         -2.9756355712784455E-010
  0.22540000000000004         -2.6152033316684253E-010
  0.22650000000000003         -1.7270833374549710E-010
  0.22760000000000002         -2.7134640021020395E-011
  0.22870000000000001          1.7220004588924809E-010
  0.22980000000000000          4.1379136228592017E-010
  0.23090000000000005          6.7689298610673632E-010
  0.23200000000000004          9.3181096172401112E-010
  0.23310000000000003          1.1414174050372594E-009
  0.23420000000000002          1.2639665980529458E-009
  0.23530000000000001          1.2571667040717216E-009
  0.23640000000000000          1.0833216546046742E-009
  0.23750000000000004          7.1522349154307108E-010
  0.23860000000000003          1.4233099421279150E-010
  0.23970000000000002         -6.2333738171105324E-010
  0.24080000000000001         -1.5422627619443574E-009
  0.24190000000000000         -2.5441517781388256E-009
  0.24300000000000005         -3.5270457665603772E-009
  0.24410000000000004         -4.3594603482688399E-009
  0.24520000000000003         -4.8860657742011426E-009
  0.24630000000000002         -4.9372141930348334E-009
  0.24740000000000001         -4.3423407092291200E-009
  0.24850000000000005         -2.9469147122540562E-009
  0.24960000000000004         -6.3231325730939147E-010
  0.25070000000000003          2.6623692139793320E-009
  0.25180000000000002          6.9177881201198943E-009
  0.25290000000000001          1.2012384864590331E-008
  0.25400000000000000          1.7702307175682108E-008
  0.25510000000000005          2.3604245669162083E-008
  0.25620000000000004          2.9181782323917105E-008
  0.25730000000000003          3.3735211957264255E-008
  0.25840000000000002          3.6394038005482798E-008
  0.25950000000000001          3.6110531453914518E-008
  0.26060000000000005          3.1651776311036883E-008
  0.26170000000000004          2.1586968657061334E-008
  0.26280000000000003          4.2659138443923439E-009
  0.26390000000000002         -2.2215807859993220E-008
  0.26500000000000001         -6.0069531571116386E-008
  0.26610000000000000         -1.1188931381411749E-007
  0.26720000000000005         -1.8075577656873065E-007
  0.26830000000000004         -2.7037268068852427E-007
  0.26940000000000003         -3.8524001411133213E-007
  0.27050000000000002         -5.3086910156707745E-007
  0.27160000000000001         -7.1404446089218254E-007
  0.27270000000000005         -9.4313514864552417E-007
  0.27380000000000004         -1.2284621107028215E-006
  0.27490000000000003         -1.5827272363821976E-006
  0.27600000000000002         -2.0215070435369853E-006
  0.27710000000000001         -2.5638241822889540E-006
  0.27820000000000000         -3.2328007364412770E-006
  0.27930000000000005         -4.0564018490840681E-006
  0.28040000000000004         -5.0682929213508032E-006
  0.28150000000000003         -6.3087964008445852E-006
  0.28260000000000002         -7.8259990914375521E-006
  0.28370000000000001         -9.6769981610123068E-006
  0.28480000000000005         -1.1929289939871524E-005
  0.28590000000000004         -1.4662371540907770E-005
  0.28700000000000003         -1.7969485270441510E-005
  0.28810000000000002         -2.1959620426059701E-005
  0.28920000000000001         -2.6759673346532509E-005
  0.29030000000000000         -3.2516858482267708E-005
  0.29140000000000005         -3.9401369576808065E-005
  0.29250000000000004         -4.7609246394131333E-005
  0.29360000000000003         -5.7365436077816412E-005
  0.29470000000000002         -6.8926958192605525E-005
  0.29580000000000001         -8.2586462667677552E-005
  0.29690000000000005         -9.8675882327370346E-005
  0.29800000000000004         -1.1757005995605141E-004
  0.29910000000000003         -1.3969033898320049E-004
  0.30020000000000002         -1.6550837608519942E-004
  0.30130000000000001         -1.9554974278435111E-004
  0.30240000000000000         -2.3039733059704304E-004
  0.30350000000000005         -2.7069443603977561E-004
  0.30460000000000004         -3.1714752549305558E-004
  0.30570000000000003         -3.7052828702144325E-004
  0.30680000000000002         -4.3167470721527934E-004
  0.30790000000000001         -5.0149240996688604E-004
  0.30900000000000005         -5.8095419080927968E-004
  0.31010000000000004         -6.7109731025993824E-004
  0.31120000000000003         -7.7302119461819530E-004
  0.31230000000000002         -8.8788231369107962E-004
  0.31340000000000001         -1.0168880689889193E-003
  0.31450000000000006         -1.1612887028604746E-003
  0.31560000000000005         -1.3223653659224510E-003
  0.31670000000000004         -1.5014178352430463E-003
  0.31780000000000003         -1.6997487982735038E-003
  0.31890000000000002         -1.9186458084732294E-003
  0.32000000000000001         -2.1593617275357246E-003
  0.32110000000000005         -2.4230906274169683E-003
  0.32220000000000004         -2.7109396178275347E-003
  0.32330000000000003         -3.0239024199545383E-003
  0.32440000000000002         -3.3628300298005342E-003
  0.32550000000000001         -3.7283997517079115E-003
  0.32660000000000006         -4.1210763156414032E-003
  0.32770000000000005         -4.5410757884383202E-003
  0.32880000000000004         -4.9883313477039337E-003
  0.32990000000000003         -5.4624560289084911E-003
  0.33100000000000002         -5.9627071022987366E-003
  0.33210000000000001         -6.4879525452852249E-003
  0.33320000000000005         -7.0366347208619118E-003
  0.33430000000000004         -7.6067456975579262E-003
  0.33540000000000003         -8.1957997754216194E-003
  0.33650000000000002         -8.8008008897304535E-003
  0.33760000000000001         -9.4182379543781281E-003
  0.33870000000000006         -1.0044079273939133E-002
  0.33980000000000005         -1.0673777200281620E-002
  0.34090000000000004         -1.1302256956696510E-002
  0.34200000000000003         -1.1923931539058685E-002
  0.34310000000000002         -1.2532738968729973E-002
  0.34420000000000001         -1.3122193515300751E-002
  0.34530000000000005         -1.3685424812138081E-002
  0.34640000000000004         -1.4215220697224140E-002
  0.34750000000000003         -1.4704097993671894E-002
  0.34860000000000002         -1.5144387260079384E-002
  0.34970000000000001         -1.5528344549238682E-002
  0.35080000000000006         -1.5848204493522644E-002
  0.35190000000000005         -1.6096346080303192E-002
  0.35300000000000004         -1.6265353187918663E-002
  0.35410000000000003         -1.6348129138350487E-002
  0.35520000000000002         -1.6338042914867401E-002
  0.35630000000000001         -1.6229066997766495E-002
  0.35740000000000005         -1.6015866771340370E-002
  0.35850000000000004         -1.5693942084908485E-002
  0.35960000000000003         -1.5259660780429840E-002
  0.36070000000000002         -1.4710469171404839E-002
  0.36180000000000001         -1.4044919982552528E-002
  0.36290000000000006         -1.3262812048196793E-002
  0.36400000000000005         -1.2365156784653664E-002
  0.36510000000000004         -1.1354299262166023E-002
  0.36620000000000003         -1.0233944281935692E-002
  0.36730000000000002         -9.0091675519943237E-003
  0.36840000000000006         -7.6863621361553669E-003
  0.36950000000000005         -6.2731965444982052E-003
  0.37060000000000004         -4.7785737551748753E-003
  0.37170000000000003         -3.2126551959663630E-003
  0.37280000000000002         -1.5866877511143684E-003
  0.37390000000000001          8.7161417468450963E-005
  0.37500000000000006          1.7959701362997293E-003
  0.37610000000000005          3.5260666627436876E-003
  0.37720000000000004          5.2632628940045834E-003
  0.37830000000000003          6.9930530153214931E-003
  0.37940000000000002          8.7008681148290634E-003
  0.38050000000000006          1.0372176766395569E-002
  0.38160000000000005          1.1992587707936764E-002
  0.38270000000000004          1.3548124581575394E-002
  0.38380000000000003          1.5025569126009941E-002
  0.38490000000000002          1.6412522643804550E-002
  0.38600000000000001          1.7697460949420929E-002
  0.38710000000000000          1.8869938328862190E-002
  0.38819999999999999          1.9920773804187775E-002
  0.38930000000000009          2.0842168480157852E-002
  0.39040000000000008          2.1627793088555336E-002
  0.39150000000000007          2.2272834554314613E-002
  0.39260000000000006          2.2774023935198784E-002
  0.39370000000000005          2.3129692301154137E-002
  0.39480000000000004          2.3339753970503807E-002
  0.39590000000000003          2.3405624553561211E-002
  0.39700000000000002          2.3330232128500938E-002
  0.39810000000000001          2.3117965087294579E-002
  0.39920000000000000          2.2774556651711464E-002
  0.40029999999999999          2.2306915372610092E-002
  0.40140000000000009          2.1722994744777679E-002
  0.40250000000000008          2.1031709387898445E-002
  0.40360000000000007          2.0242840051651001E-002
  0.40470000000000006          1.9366854801774025E-002
  0.40580000000000005          1.8414657562971115E-002
  0.40690000000000004          1.7397431656718254E-002
  0.40800000000000003          1.6326526179909706E-002
  0.40910000000000002          1.5213356353342533E-002
  0.41020000000000001          1.4069236814975739E-002
  0.41130000000000000          1.2905188836157322E-002
  0.41239999999999999          1.1731800623238087E-002
  0.41350000000000009          1.0559127666056156E-002
  0.41460000000000008          9.3966601416468620E-003
  0.41570000000000007          8.2532353699207306E-003
  0.41680000000000006          7.1369367651641369E-003
  0.41790000000000005          6.0550407506525517E-003
  0.41900000000000004          5.0139608792960644E-003
  0.42010000000000003          4.0192040614783764E-003
  0.42120000000000002          3.0754224862903357E-003
  0.42230000000000001          2.1864036098122597E-003
  0.42340000000000000          1.3551067095249891E-003
  0.42449999999999999          5.8369635371491313E-004
  0.42560000000000009         -1.2646682444028556E-004
  0.42670000000000008         -7.7479565516114235E-004
  0.42780000000000007         -1.3613633345812559E-003
  0.42890000000000006         -1.8868220504373312E-003
  0.43000000000000005         -2.3523669224232435E-003
  0.43110000000000004         -2.7596764266490936E-003
  0.43220000000000003         -3.1108660623431206E-003
  0.43330000000000002         -3.4084049984812737E-003
  0.43440000000000001         -3.6550469230860472E-003
  0.43550000000000000         -3.8537748623639345E-003
  0.43659999999999999         -4.0077231824398041E-003
  0.43770000000000009         -4.1201091371476650E-003
  0.43880000000000008         -4.1941772215068340E-003
  0.43990000000000007         -4.2331689037382603E-003
  0.44100000000000006         -4.2403088882565498E-003
  0.44210000000000005         -4.2187785729765892E-003
  0.44320000000000004         -4.1716429404914379E-003
  0.44430000000000003         -4.1018123738467693E-003
  0.44540000000000002         -4.0120296180248260E-003
  0.44650000000000001         -3.9048448670655489E-003
  0.44760000000000000         -3.7826395127922297E-003
  0.44869999999999999         -3.6476203240454197E-003
  0.44980000000000009         -3.5018317867070436E-003
  0.45090000000000008         -3.3471242059022188E-003
  0.45200000000000007         -3.1851388048380613E-003
  0.45310000000000006         -3.0172858387231827E-003
  0.45420000000000005         -2.8448398225009441E-003
  0.45530000000000004         -2.6689441874623299E-003
  0.45640000000000003         -2.4906313046813011E-003
  0.45750000000000002         -2.3107749875634909E-003
  0.45860000000000001         -2.1301137749105692E-003
  0.45970000000000000         -1.9492952851578593E-003
  0.46079999999999999         -1.7688908847048879E-003
  0.46190000000000009         -1.5893938252702355E-003
  0.46300000000000008         -1.4112401986494660E-003
  0.46410000000000007         -1.2348548043519258E-003
  0.46520000000000006         -1.0606847936287522E-003
  0.46630000000000005         -8.8915962260216475E-004
  0.46740000000000004         -7.2066625580191612E-004
  0.46850000000000003         -5.5557803716510534E-004
  0.46960000000000002         -3.9430474862456322E-004
  0.47070000000000001         -2.3732791305519640E-004
  0.47180000000000000         -8.5171988757792860E-005
  0.47289999999999999          6.1640392232220620E-005
  0.47400000000000009          2.0254337869118899E-004
  0.47510000000000008          3.3691464341245592E-004
  0.47620000000000007          4.6410353388637304E-004
  0.47730000000000006          5.8347039157524705E-004
  0.47840000000000005          6.9436460034921765E-004