 -0.12000000000000000          0.0000000000000000     
 -0.11889999999999999          0.0000000000000000     
 -0.11780000000000000          0.0000000000000000     
 -0.11670000000000000          0.0000000000000000     
 -0.11559999999999999          0.0000000000000000     
 -0.11449999999999999          0.0000000000000000     
 -0.11340000000000000          0.0000000000000000     
 -0.11230000000000000          0.0000000000000000     
 -0.11119999999999999          0.0000000000000000     
 -0.11009999999999999          0.0000000000000000     
 -0.10900000000000000          0.0000000000000000     
 -0.10790000000000000          0.0000000000000000     
 -0.10679999999999999          0.0000000000000000     
 -0.10569999999999999          0.0000000000000000     
 -0.10460000000000000          0.0000000000000000     
 -0.10349999999999999          0.0000000000000000     
 -0.10239999999999999          0.0000000000000000     
 -0.10130000000000000          0.0000000000000000     
 -0.10020000000000000          0.0000000000000000     
  -9.9099999999999994E-002     0.0000000000000000     
  -9.7999999999999990E-002     0.0000000000000000     
  -9.6899999999999986E-002     0.0000000000000000     
  -9.5799999999999996E-002     0.0000000000000000     
  -9.4699999999999993E-002     0.0000000000000000     
  -9.3599999999999989E-002     0.0000000000000000     
  -9.2499999999999999E-002     0.0000000000000000     
  -9.1399999999999995E-002     0.0000000000000000     
  -9.0299999999999991E-002     0.0000000000000000     
  -8.9200000000000002E-002     0.0000000000000000     
  -8.8099999999999984E-002     0.0000000000000000     
  -8.6999999999999994E-002     0.0000000000000000     
  -8.5899999999999990E-002     0.0000000000000000     
  -8.4799999999999986E-002     0.0000000000000000     
  -8.3699999999999997E-002     0.0000000000000000     
  -8.2599999999999993E-002     0.0000000000000000     
  -8.1499999999999989E-002     0.0000000000000000     
  -8.0399999999999999E-002     0.0000000000000000     
  -7.9299999999999995E-002     0.0000000000000000     
  -7.8199999999999992E-002     0.0000000000000000     
  -7.7100000000000002E-002     0.0000000000000000     
  -7.5999999999999984E-002     0.0000000000000000     
  -7.4899999999999994E-002     0.0000000000000000     
  -7.3799999999999991E-002     0.0000000000000000     
  -7.2699999999999987E-002     0.0000000000000000     
  -7.1599999999999997E-002     0.0000000000000000     
  -7.0499999999999993E-002     0.0000000000000000     
  -6.9399999999999989E-002     0.0000000000000000     
  -6.8300000000000000E-002     0.0000000000000000     
  -6.7199999999999996E-002     0.0000000000000000     
  -6.6099999999999992E-002     0.0000000000000000     
  -6.5000000000000002E-002     0.0000000000000000     
  -6.3899999999999985E-002     0.0000000000000000     
  -6.2799999999999995E-002     0.0000000000000000     
  -6.1699999999999991E-002     0.0000000000000000     
  -6.0599999999999994E-002     0.0000000000000000     
  -5.9499999999999990E-002     0.0000000000000000     
  -5.8399999999999994E-002     0.0000000000000000     
  -5.7299999999999990E-002     0.0000000000000000     
  -5.6199999999999986E-002     0.0000000000000000     
  -5.5099999999999996E-002     0.0000000000000000     
  -5.3999999999999992E-002     0.0000000000000000     
  -5.2899999999999989E-002     0.0000000000000000     
  -5.1799999999999985E-002     0.0000000000000000     
  -5.0699999999999995E-002     0.0000000000000000     
  -4.9599999999999991E-002     0.0000000000000000     
  -4.8499999999999988E-002     0.0000000000000000     
  -4.7399999999999998E-002     0.0000000000000000     
  -4.6299999999999994E-002     0.0000000000000000     
  -4.5199999999999990E-002     0.0000000000000000     
  -4.4099999999999986E-002     0.0000000000000000     
  -4.2999999999999997E-002     0.0000000000000000     
  -4.1899999999999993E-002     0.0000000000000000     
  -4.0799999999999989E-002     0.0000000000000000     
  -3.9699999999999985E-002     0.0000000000000000     
  -3.8599999999999995E-002     0.0000000000000000     
  -3.7499999999999992E-002     0.0000000000000000     
  -3.6399999999999988E-002     0.0000000000000000     
  -3.5299999999999984E-002     0.0000000000000000     
  -3.4199999999999994E-002     0.0000000000000000     
  -3.3099999999999991E-002     0.0000000000000000     
  -3.1999999999999987E-002     0.0000000000000000     
  -3.0899999999999997E-002     0.0000000000000000     
  -2.9799999999999993E-002     0.0000000000000000     
  -2.8699999999999989E-002     0.0000000000000000     
  -2.7599999999999986E-002     0.0000000000000000     
  -2.6499999999999996E-002     0.0000000000000000     
  -2.5399999999999992E-002     0.0000000000000000     
  -2.4299999999999988E-002     0.0000000000000000     
  -2.3199999999999985E-002     0.0000000000000000     
  -2.2099999999999995E-002     0.0000000000000000     
  -2.0999999999999991E-002     0.0000000000000000     
  -1.9899999999999987E-002     0.0000000000000000     
  -1.8799999999999983E-002     0.0000000000000000     
  -1.7699999999999994E-002     0.0000000000000000     
  -1.6599999999999990E-002     0.0000000000000000     
  -1.5499999999999986E-002     0.0000000000000000     
  -1.4399999999999996E-002     0.0000000000000000     
  -1.3299999999999992E-002     0.0000000000000000     
  -1.2199999999999989E-002     0.0000000000000000     
  -1.1099999999999985E-002     0.0000000000000000     
  -9.9999999999999950E-003     0.0000000000000000     
  -8.8999999999999913E-003     0.0000000000000000     
  -7.7999999999999875E-003     0.0000000000000000     
  -6.6999999999999837E-003     0.0000000000000000     
  -5.5999999999999939E-003     0.0000000000000000     
  -4.4999999999999901E-003     0.0000000000000000     
  -3.3999999999999864E-003     0.0000000000000000     
  -2.2999999999999826E-003     0.0000000000000000     
  -1.1999999999999927E-003     0.0000000000000000     
  -9.9999999999988987E-005     0.0000000000000000     
   1.0000000000000148E-003     0.0000000000000000     
   2.1000000000000185E-003     0.0000000000000000     
   3.2000000000000084E-003     0.0000000000000000     
   4.3000000000000121E-003     0.0000000000000000     
   5.4000000000000159E-003     0.0000000000000000     
   6.5000000000000058E-003     0.0000000000000000     
   7.6000000000000234E-003     0.0000000000000000     
   8.7000000000000133E-003     0.0000000000000000     
   9.8000000000000032E-003     0.0000000000000000     
   1.0900000000000021E-002     0.0000000000000000     
   1.2000000000000011E-002     0.0000000000000000     
   1.3100000000000001E-002     0.0000000000000000     
   1.4200000000000018E-002     0.0000000000000000     
   1.5300000000000008E-002     0.0000000000000000     
   1.6400000000000026E-002     0.0000000000000000     
   1.7500000000000016E-002     0.0000000000000000     
   1.8600000000000005E-002     0.0000000000000000     
   1.9700000000000023E-002     0.0000000000000000     
   2.0800000000000013E-002     0.0000000000000000     
   2.1900000000000003E-002     0.0000000000000000     
   2.3000000000000020E-002     0.0000000000000000     
   2.4100000000000010E-002     0.0000000000000000     
   2.5200000000000000E-002     0.0000000000000000     
   2.6300000000000018E-002     0.0000000000000000     
   2.7400000000000008E-002     0.0000000000000000     
   2.8500000000000025E-002     0.0000000000000000     
   2.9600000000000015E-002     0.0000000000000000     
   3.0700000000000005E-002     0.0000000000000000     
   3.1800000000000023E-002     0.0000000000000000     
   3.2900000000000013E-002     0.0000000000000000     
   3.4000000000000002E-002     0.0000000000000000     
   3.5100000000000020E-002     0.0000000000000000     
   3.6200000000000010E-002     0.0000000000000000     
   3.7300000000000028E-002     0.0000000000000000     
   3.8400000000000017E-002     0.0000000000000000     
   3.9500000000000007E-002     0.0000000000000000     
   4.0600000000000025E-002     0.0000000000000000     
   4.1700000000000015E-002     0.0000000000000000     
   4.2800000000000005E-002     0.0000000000000000     
   4.3900000000000022E-002     0.0000000000000000     
   4.5000000000000012E-002     0.0000000000000000     
   4.6100000000000002E-002     0.0000000000000000     
   4.7200000000000020E-002     0.0000000000000000     
   4.8300000000000010E-002     0.0000000000000000     
   4.9400000000000027E-002     0.0000000000000000     
   5.0500000000000017E-002     0.0000000000000000     
   5.1600000000000007E-002     0.0000000000000000     
   5.2700000000000025E-002     0.0000000000000000     
   5.3800000000000014E-002     0.0000000000000000     
   5.4900000000000004E-002     0.0000000000000000     
   5.6000000000000022E-002     0.0000000000000000     
   5.7100000000000012E-002     0.0000000000000000     
   5.8200000000000002E-002     0.0000000000000000     
   5.9300000000000019E-002     0.0000000000000000     
   6.0400000000000009E-002     0.0000000000000000     
   6.1500000000000027E-002     0.0000000000000000     
   6.2600000000000017E-002     0.0000000000000000     
   6.3700000000000007E-002     0.0000000000000000     
   6.4800000000000024E-002     0.0000000000000000     
   6.5900000000000014E-002     0.0000000000000000     
   6.7000000000000004E-002     0.0000000000000000     
   6.8100000000000022E-002     0.0000000000000000     
   6.9200000000000012E-002     0.0000000000000000     
   7.0300000000000029E-002     0.0000000000000000     
   7.1400000000000019E-002     0.0000000000000000     
   7.2500000000000009E-002     0.0000000000000000     
   7.3600000000000027E-002     0.0000000000000000     
   7.4700000000000016E-002     0.0000000000000000     
   7.5800000000000006E-002     0.0000000000000000     
   7.6900000000000024E-002     0.0000000000000000     
   7.8000000000000014E-002     0.0000000000000000     
   7.9100000000000004E-002     0.0000000000000000     
   8.0200000000000021E-002     0.0000000000000000     
   8.1300000000000011E-002     0.0000000000000000     
   8.2400000000000029E-002     0.0000000000000000     
   8.3500000000000019E-002     0.0000000000000000     
   8.4600000000000009E-002     0.0000000000000000     
   8.5700000000000026E-002     0.0000000000000000     
   8.6800000000000016E-002     0.0000000000000000     
   8.7900000000000006E-002     0.0000000000000000     
   8.9000000000000024E-002     0.0000000000000000     
   9.0100000000000013E-002     0.0000000000000000     
   9.1200000000000003E-002     0.0000000000000000     
   9.2300000000000021E-002     0.0000000000000000     
   9.3400000000000011E-002     0.0000000000000000     
   9.4500000000000028E-002     0.0000000000000000     
   9.5600000000000018E-002     0.0000000000000000     
   9.6700000000000008E-002     0.0000000000000000     
   9.7800000000000026E-002     0.0000000000000000     
   9.8900000000000016E-002     0.0000000000000000     
  0.10000000000000001          0.0000000000000000     
  0.10110000000000002          0.0000000000000000     
  0.10220000000000001          0.0000000000000000     
  0.10330000000000003          0.0000000000000000     
  0.10440000000000002          0.0000000000000000     
  0.10550000000000001          0.0000000000000000     
  0.10660000000000003          0.0000000000000000     
  0.10770000000000002          0.0000000000000000     
  0.10880000000000001          0.0000000000000000     
  0.10990000000000003          0.0000000000000000     
  0.11100000000000002          0.0000000000000000     
  0.11210000000000001          0.0000000000000000     
  0.11320000000000002          0.0000000000000000     
  0.11430000000000001          0.0000000000000000     
  0.11540000000000003          0.0000000000000000     
  0.11650000000000002          0.0000000000000000     
  0.11760000000000001          0.0000000000000000     
  0.11870000000000003          0.0000000000000000     
  0.11980000000000002          0.0000000000000000     
  0.12090000000000001          0.0000000000000000     
  0.12200000000000003          0.0000000000000000     
  0.12310000000000001          0.0000000000000000     
  0.12420000000000003          0.0000000000000000     
  0.12530000000000002          0.0000000000000000     
  0.12640000000000001          0.0000000000000000     
  0.12750000000000003          0.0000000000000000     
  0.12860000000000002          0.0000000000000000     
  0.12970000000000001          0.0000000000000000     
  0.13080000000000003          0.0000000000000000     
  0.13190000000000002          0.0000000000000000     
  0.13300000000000001          0.0000000000000000     
  0.13410000000000000          0.0000000000000000     
  0.13520000000000004          0.0000000000000000     
  0.13630000000000003          0.0000000000000000     
  0.13740000000000002          0.0000000000000000     
  0.13850000000000001          0.0000000000000000     
  0.13960000000000000          0.0000000000000000     
  0.14070000000000005          0.0000000000000000     
  0.14180000000000004          0.0000000000000000     
  0.14290000000000003         -8.6499905849710137E-048
  0.14400000000000002         -1.7299981169942027E-047
  0.14510000000000001         -8.6499905849710137E-048
  0.14620000000000000          1.2974985877456521E-047
  0.14730000000000004          4.3249952924855069E-047
  0.14840000000000003          4.7574948217340575E-047
  0.14950000000000002         -2.5458514533723051E-047
  0.15060000000000001         -1.8355021890704224E-046
  0.15170000000000000         -3.2026267542852889E-046
  0.15280000000000005         -2.3499141263179373E-046
  0.15390000000000004          9.8459269848671282E-047
  0.15500000000000003          3.4973814703380190E-045
  0.15610000000000002          6.7519568455994044E-045
  0.15720000000000001          6.5163590742701654E-045
  0.15830000000000000         -4.0174988936811473E-046
  0.15940000000000004         -1.5196412624366656E-044
  0.16050000000000003         -2.9787996820014827E-044
  0.16160000000000002         -2.9499564818607339E-044
  0.16270000000000001          1.6994623948650803E-045
  0.16380000000000000          6.3768553805242082E-044
  0.16490000000000005          1.2621932497415822E-043
  0.16600000000000004          1.3335336997752751E-043
  0.16710000000000003          2.1838142738797527E-044
  0.16820000000000002         -2.1742301621819782E-043
  0.16930000000000001         -4.9072509658010920E-043
  0.17040000000000000         -5.8532312626839699E-043
  0.17150000000000004         -2.5475735517730019E-043
  0.17260000000000003          6.0062649479288156E-043
  0.17370000000000002          1.7100323384505915E-042
  0.17480000000000001          2.3470777533614822E-042
  0.17590000000000000          1.5524978507276500E-042
  0.17700000000000005         -1.2532898668891332E-042
  0.17810000000000004         -5.4677590731530144E-042
  0.17920000000000003         -8.8016922074179170E-042
  0.18030000000000002         -7.7374170664694116E-042
  0.18140000000000001          6.1064122599877359E-043
  0.18250000000000000          1.5628590270663612E-041
  0.18360000000000004          3.0775722991133563E-041
  0.18470000000000003          3.3921204979470287E-041
  0.18580000000000002          1.2421420445817696E-041
  0.18690000000000001         -3.7219494078527664E-041
  0.18800000000000000         -9.8999656143590017E-041
  0.18910000000000005         -1.3400712633840404E-040
  0.19020000000000004         -9.2264060390302720E-041
  0.19130000000000003          5.7020567420699003E-041
  0.19240000000000002          2.8555062808281771E-040
  0.19350000000000001          4.7981722787328413E-040
  0.19460000000000005          4.6030260947872194E-040
  0.19570000000000004          6.7590621198807557E-041
  0.19680000000000003         -6.9781098960422373E-040
  0.19790000000000002         -1.5474712064551378E-039
  0.19900000000000001         -1.8971576714104462E-039
  0.20010000000000000         -1.0799309516637261E-039
  0.20120000000000005          1.2099997527988438E-039
  0.20230000000000004          4.4020242035730559E-039
  0.20340000000000003          6.7988467438044762E-039
  0.20450000000000002          5.9832724029680629E-039
  0.20560000000000000          7.5319120922396950E-041
  0.20670000000000005         -1.0459389472304868E-038
  0.20780000000000004         -2.1381746158245992E-038
  0.20890000000000003         -2.4968172971907811E-038
  0.21000000000000002         -1.3066517018279299E-038
  0.21110000000000001          1.7291144618984829E-038
  0.21220000000000000          5.7933897462967982E-038
  0.21330000000000005          8.7295900219151482E-038
  0.21440000000000003          7.6112542026276617E-038
  0.21550000000000002          2.6612299324131505E-039
  0.21660000000000001         -1.2648814096977092E-037
  0.21770000000000000         -2.6091809713489658E-037
  0.21880000000000005         -3.1048646616086588E-037
  0.21990000000000004         -1.7992959247935119E-037
  0.22100000000000003          1.6887002608762682E-037
  0.22210000000000002          6.5067571812578972E-037
  0.22320000000000001          1.0293128377072710E-036
  0.22430000000000000          9.7390336770205234E-037
  0.22540000000000004          2.1795677603251340E-037
  0.22650000000000003         -1.2161648993620929E-036
  0.22760000000000002         -2.8340591111586622E-036
  0.22870000000000001         -3.6780164429749748E-036
  0.22980000000000000         -2.6511074965881140E-036
  0.23090000000000005          8.4735928798561700E-037
  0.23200000000000004          6.1882187532469879E-036
  0.23310000000000003          1.1100264364438435E-035
  0.23420000000000002          1.2064462325693102E-035
  0.23530000000000001          5.7886752799210231E-036
  0.23640000000000000         -8.4913466193213197E-036
  0.23750000000000004         -2.6844265066945137E-035
  0.23860000000000003         -4.0103993648641043E-035
  0.23970000000000002         -3.6363093608667277E-035
  0.24080000000000001         -6.8449486453774064E-036
  0.24190000000000000          4.6451504271665192E-035
  0.24300000000000005          1.0509335668801471E-034
  0.24410000000000004          1.3540039735716427E-034
  0.24520000000000003          1.0003019769305779E-034
  0.24630000000000002         -2.0845963720335936E-035
  0.24740000000000001         -2.0611154978948244E-034
  0.24850000000000005         -3.8126475063251482E-034
  0.24960000000000004         -4.3145105896205632E-034
  0.25070000000000003         -2.4744665957823303E-034
  0.25180000000000002          2.0373155799945219E-034
  0.25290000000000001          8.1200017305955558E-034
  0.25400000000000000          1.3041923544290236E-033
  0.25510000000000005          1.3109443793223365E-033
  0.25620000000000004          5.3169982893972169E-034
  0.25730000000000003         -1.0433895463091666E-033
  0.25840000000000002         -2.9540373303054435E-033
  0.25950000000000001         -4.2647188094819658E-033
  0.26060000000000005         -3.8386399733483575E-033
  0.26170000000000004         -8.9098560148968517E-034
  0.26280000000000003          4.3426747334895652E-033
  0.26390000000000002          1.0148520420163696E-032
  0.26500000000000001          1.3475640572898404E-032
  0.26610000000000000          1.0936787462615970E-032
  0.26720000000000005          5.7796546462488604E-034
  0.26830000000000004         -1.6169793353882192E-032
  0.26940000000000003         -3.3378053268127513E-032
  0.27050000000000002         -4.1459452419967753E-032
  0.27160000000000001         -3.0571091612391778E-032
  0.27270000000000005          3.9261764499543600E-033
  0.27380000000000004          5.5912814795322331E-032
  0.27490000000000003          1.0595344475018224E-031
  0.27600000000000002          1.2483128420055143E-031
  0.27710000000000001          8.4523787093050231E-032
  0.27820000000000000         -2.5474701967621634E-032
  0.27930000000000005         -1.8269668863169943E-031
  0.28040000000000004         -3.2617646838207744E-031
  0.28150000000000003         -3.6924736372334101E-031
  0.28260000000000002         -2.3337794707690822E-031
  0.28370000000000001          1.0438632404439302E-031
  0.28480000000000005          5.6917263406909582E-031
  0.28590000000000004          9.7699534778737707E-031
  0.28700000000000003          1.0767463010130268E-030
  0.28810000000000002          6.5043492882474024E-031
  0.28920000000000001         -3.5222280475247181E-031
  0.29030000000000000         -1.6994371814431938E-030
  0.29140000000000005         -2.8546969683641898E-030
  0.29250000000000004         -3.1046346987757360E-030
  0.29360000000000003         -1.8459062886004791E-030
  0.29470000000000002          1.0402420049751572E-030
  0.29580000000000001          4.8788301945638302E-030
  0.29690000000000005          8.1522717853479963E-030
  0.29800000000000004          8.8669386596947316E-030
  0.29910000000000003          5.3503443873630937E-030
  0.30020000000000002         -2.7219572809013051E-030
  0.30130000000000001         -1.3487659355810258E-029
  0.30240000000000000         -2.2771408498271679E-029
  0.30350000000000005         -2.5083159098702652E-029
  0.30460000000000004         -1.5776407594343719E-029
  0.30570000000000003          6.1736755922771299E-030
  0.30680000000000002          3.5886004663436726E-029
  0.30790000000000001          6.2177412027037366E-029
  0.30900000000000005          7.0155748304463834E-029
  0.31010000000000004          4.6917222635641082E-029
  0.31120000000000003         -1.1042559528053024E-029
  0.31230000000000002         -9.1603550189029541E-029
  0.31340000000000001         -1.6564128672916529E-028
  0.31450000000000006         -1.9343755998154630E-028
  0.31560000000000005         -1.3932391102293740E-028
  0.31670000000000004          8.8661208765088957E-030
  0.31780000000000003          2.2289401287260698E-028
  0.31890000000000002          4.2921623488355377E-028
  0.32000000000000001          5.2394688880859817E-028
  0.32110000000000005          4.0939790752104597E-028
  0.32220000000000004          4.4193714493730695E-029
  0.32330000000000003         -5.1118499991113882E-028
  0.32440000000000002         -1.0774239296878728E-027
  0.32550000000000001         -1.3888177425305508E-027
  0.32660000000000006         -1.1814664418197148E-027
  0.32770000000000005         -3.1969460991334971E-028
  0.32880000000000004          1.0826729846173768E-027
  0.32990000000000003          2.6059069617037882E-027
  0.33100000000000002          3.5876670892998809E-027
  0.33210000000000001          3.3279479081090234E-027
  0.33320000000000005          1.4004542145082635E-027
  0.33430000000000004         -2.0296702624189935E-027
  0.33540000000000003         -6.0272473910857290E-027
  0.33650000000000002         -8.9897449597796742E-027
  0.33760000000000001         -9.1025960788115802E-027
  0.33870000000000006         -5.0852329816966136E-027
  0.33980000000000005          2.9939849116565742E-027
  0.34090000000000004          1.3179491406682024E-026
  0.34200000000000003          2.1728279421335154E-026
  0.34310000000000002          2.4066058890832450E-026
  0.34420000000000001          1.6517185744107263E-026
  0.34530000000000005         -1.6595186375608583E-027
  0.34640000000000004         -2.6725307910636657E-026
  0.34750000000000003         -5.0302590459793058E-026
  0.34860000000000002         -6.1234395636582273E-026
  0.34970000000000001         -4.9440520035671488E-026
  0.35080000000000006         -1.0846118238929466E-026
  0.35190000000000005          4.8386141076421853E-026
  0.35300000000000004          1.1047696334847857E-025
  0.35410000000000003          1.4924147574738157E-025
  0.35520000000000002          1.3827591749952516E-025
  0.35630000000000001          6.2461550374875902E-026
  0.35740000000000005         -7.0972662175329436E-026
  0.35850000000000004         -2.2684083013343246E-025
  0.35960000000000003         -3.4639493668125427E-025
  0.36070000000000002         -3.6365217116745106E-025
  0.36180000000000001         -2.3113244073710912E-025
  0.36290000000000006          5.2544312020919034E-026
  0.36400000000000005          4.2439730325761589E-025
  0.36510000000000004          7.5953026963568705E-025
  0.36620000000000003          9.0100532390600569E-025
  0.36730000000000002          7.1462044576982084E-025
  0.36840000000000006          1.5450342581993699E-025
  0.36950000000000005         -6.8435581536067553E-025
  0.37060000000000004         -1.5537146984448402E-024
  0.37170000000000003         -2.0997954974156982E-024
  0.37280000000000002         -1.9729536746359469E-024
  0.37390000000000001         -9.7572121670499924E-025
  0.37500000000000006          7.9894046009152238E-025
  0.37610000000000005          2.9005076431944965E-024
  0.37720000000000004          4.5783783010022052E-024
  0.37830000000000003          4.9845702138490907E-024
  0.37940000000000002          3.4891964238081487E-024
  0.38050000000000006          1.8155646071912942E-026
  0.38160000000000005         -4.7184085243246211E-024
  0.38270000000000004         -9.2391365761237147E-024
  0.38380000000000003         -1.1624889823605910E-023
  0.38490000000000002         -1.0147442330607311E-023
  0.38600000000000001         -4.0390017357308186E-024
  0.38710000000000000          5.8621368470894630E-024
  0.38819999999999999          1.6894248874455943E-023
  0.38930000000000009          2.5017112208556370E-023
  0.39040000000000008          2.5964272998871074E-023
  0.39150000000000007          1.6877574473035604E-023
  0.39260000000000006         -2.0703598262299570E-024
  0.39370000000000005         -2.6719513818000925E-023
  0.39480000000000004         -4.9235556794278038E-023
  0.39590000000000003         -5.9988505720614279E-023
  0.39700000000000002         -5.0766713425851368E-023
  0.39810000000000001         -1.8490462893967111E-023
  0.39920000000000000          3.1879587434574261E-023
  0.40029999999999999          8.6647596153362046E-023
  0.40140000000000009          1.2589041825192023E-022
  0.40250000000000008          1.2921518580262371E-022
  0.40360000000000007          8.3554862989800820E-023
  0.40470000000000006         -9.3904375438361207E-024
  0.40580000000000005         -1.2907447720074916E-022
  0.40690000000000004         -2.3803202128782472E-022
  0.40800000000000003         -2.9095129281770296E-022
  0.40910000000000002         -2.4962104787636162E-022
  0.41020000000000001         -9.9822230092758885E-023
  0.41130000000000000          1.3572079355941054E-022
  0.41239999999999999          3.9450226499634430E-022
  0.41350000000000009          5.8569027958940381E-022
  0.41460000000000008          6.1586528609447918E-022
  0.41570000000000007          4.2359244304613009E-022
  0.41680000000000006          1.2391431334005543E-023
  0.41790000000000005         -5.3083874282937706E-022
  0.41900000000000004         -1.0432309342519497E-021
  0.42010000000000003         -1.3240920987006667E-021
  0.42120000000000002         -1.1985680210511559E-021
  0.42230000000000001         -5.9052997809683951E-022
  0.42340000000000000          4.1980706167825033E-022
  0.42449999999999999          1.5794375333099525E-021
  0.42560000000000009          2.5053530613654752E-021
  0.42670000000000008          2.7878403634748882E-021
  0.42780000000000007          2.1335337411574630E-021
  0.42890000000000006          5.0688004346659623E-022
  0.43000000000000005         -1.7824558282019599E-021
  0.43110000000000004         -4.0936379916554147E-021
  0.43220000000000003         -5.5936556681575585E-021
  0.43330000000000002         -5.5056233770681356E-021
  0.43440000000000001         -3.4064993046350717E-021
  0.43550000000000000          5.2020745867546356E-022
  0.43659999999999999          5.3807879853736914E-021
  0.43770000000000009          9.6952542782707891E-021
  0.43880000000000008          1.1766451286937957E-020
  0.43990000000000007          1.0228335938571019E-020
  0.44100000000000006          4.6251805632943477E-021
  0.44210000000000005         -4.1773355905512146E-021
  0.44320000000000004         -1.3941040069109773E-020
  0.44430000000000003         -2.1478414231205661E-020
  0.44540000000000002         -2.3525418938122089E-020
  0.44650000000000001         -1.7873347405321244E-020
  0.44760000000000000         -4.4275924069644226E-021
  0.44869999999999999          1.4199084096060226E-020
  0.44980000000000009          3.2888395245070463E-020
  0.45090000000000008          4.5148252465190190E-020
  0.45200000000000007          4.5017646246668501E-020
  0.45310000000000006          2.9277788246076354E-020
  0.45420000000000005         -7.2212963853010182E-022
  0.45530000000000004         -3.8356271898202729E-020
  0.45640000000000003         -7.2657958681520558E-020
  0.45750000000000002         -9.0989708647962273E-020
  0.45860000000000001         -8.2961023899869048E-020
  0.45970000000000000         -4.4557551065569635E-020
  0.46079999999999999          1.8882107510561992E-020
  0.46190000000000009          9.2144657345089759E-020
  0.46300000000000008          1.5285654149251834E-019
  0.46410000000000007          1.7730174616234088E-019
  0.46520000000000006          1.4812238667050261E-019
  0.46630000000000005          6.1749224966108173E-020
  0.46740000000000004         -6.7014656585606309E-020
  0.46850000000000003         -2.0548688335723180E-019
  0.46960000000000002         -3.0972416324192768E-019
  0.47070000000000001         -3.3650401402149364E-019
  0.47180000000000000         -2.5793075054336474E-019
  0.47289999999999999         -7.4407861068785287E-020
  0.47400000000000009          1.7872924599191078E-019
  0.47510000000000008          4.3460863078929621E-019
  0.47620000000000007          6.0945825189846520E-019
  0.47730000000000006          6.2625270731776133E-019
  0.47840000000000005          4.4165264257855920E-019