 -0.12000000000000000          0.0000000000000000     
 -0.11889999999999999          0.0000000000000000     
 -0.11780000000000000          0.0000000000000000     
 -0.11670000000000000          0.0000000000000000     
 -0.11559999999999999          0.0000000000000000     
 -0.11449999999999999          0.0000000000000000     
 -0.11340000000000000          0.0000000000000000     
 -0.11230000000000000          0.0000000000000000     
 -0.11119999999999999          0.0000000000000000     
 -0.11009999999999999          0.0000000000000000     
 -0.10900000000000000          0.0000000000000000     
 -0.10790000000000000          0.0000000000000000     
 -0.10679999999999999          0.0000000000000000     
 -0.10569999999999999          0.0000000000000000     
 -0.10460000000000000          0.0000000000000000     
 -0.10349999999999999          0.0000000000000000     
 -0.10239999999999999          1.6541279416377916E-037
 -0.10130000000000000          1.5052090024607282E-036
 -0.10020000000000000          3.5723239464079699E-036
  -9.9099999999999994E-002    -1.3953661693055629E-035
  -9.7999999999999990E-002    -1.0761053666888359E-034
  -9.6899999999999986E-002    -2.1162505286576859E-034
  -9.5799999999999996E-002     3.7716285962465336E-034
  -9.4699999999999993E-002     2.9137706449880366E-033
  -9.3599999999999989E-002     5.4582371613230875E-033
  -9.2499999999999999E-002    -4.5471563518737220E-033
  -9.1399999999999995E-002    -4.4479893230426137E-032
  -9.0299999999999991E-002    -8.6032216784948261E-032
  -8.9200000000000002E-002     1.7841776009519541E-032
  -8.8099999999999984E-002     4.4834089684949027E-031
  -8.6999999999999994E-002     9.4571189583706476E-031
  -8.5899999999999990E-002     2.3956813848823070E-031
  -8.4799999999999986E-002    -3.2138626311676557E-030
  -8.3699999999999997E-002    -7.7800201253718376E-030
  -8.2599999999999993E-002    -4.8301484181180109E-030
  -8.1499999999999989E-002     1.6722938307118112E-029
  -8.0399999999999999E-002     4.9961684177146294E-029
  -7.9299999999999995E-002     4.7222520825806291E-029
  -7.8199999999999992E-002    -5.9354680550933748E-029
  -7.7100000000000002E-002    -2.5587645403722724E-028
  -7.5999999999999984E-002    -3.2527811554479633E-028
  -7.4899999999999994E-002     8.7712672415385965E-029
  -7.3799999999999991E-002     1.0442048040538734E-027
  -7.2699999999999987E-002     1.7337289551300145E-027
  -7.1599999999999997E-002     5.6551513542588105E-028
  -7.0499999999999993E-002    -3.2714161614379530E-027
  -6.9399999999999989E-002    -7.3838938182664265E-027
  -6.8300000000000000E-002    -5.7074518980804935E-027
  -6.7199999999999996E-002     6.7814531116804702E-027
  -6.6099999999999992E-002     2.5159213916417166E-026
  -6.5000000000000002E-002     2.9974927925756359E-026
  -6.3899999999999985E-002    -1.3811497357971262E-027
  -6.2799999999999995E-002    -6.6343487556022525E-026
  -6.1699999999999991E-002    -1.1384387187723116E-025
  -6.0599999999999994E-002    -6.3088309528443206E-026
  -5.9499999999999990E-002     1.1957388239491493E-025
  -5.8399999999999994E-002     3.3187813971719106E-025
  -5.7299999999999990E-002     3.3865617158467312E-025
  -5.6199999999999986E-002    -5.5600356614015716E-026
  -5.5099999999999996E-002    -7.3313833028267892E-025
  -5.3999999999999992E-002    -1.1384610717761868E-024
  -5.2899999999999989E-002    -5.7464732079786504E-025
  -5.1799999999999985E-002     1.0962900344479644E-024
  -5.0699999999999995E-002     2.8545138505141820E-024
  -4.9599999999999991E-002     2.7938376891643231E-024
  -4.8499999999999988E-002    -3.9661302229447165E-025
  -4.7399999999999998E-002    -5.5234634329823737E-024
  -4.6299999999999994E-002    -8.3725931293946450E-024
  -4.5199999999999990E-002    -4.1479640408216903E-024
  -4.4099999999999986E-002     7.7111301028733816E-024
  -4.2999999999999997E-002     1.9874923705513883E-023
  -4.1899999999999993E-002     1.9344042863126945E-023
  -4.0799999999999989E-002    -2.7458612167305117E-024
  -3.9699999999999985E-002    -3.8776774330228746E-023
  -3.8599999999999995E-002    -6.0774328481604314E-023
  -3.7499999999999992E-002    -3.4728801067581102E-023
  -3.6399999999999988E-002     4.8965462314791365E-023
  -3.5299999999999984E-002     1.4828241909941083E-022
  -3.4199999999999994E-002     1.7432689586758475E-022
  -3.3099999999999991E-002     4.4844079215024338E-023
  -3.1999999999999987E-002    -2.3194145779705171E-022
  -3.0899999999999997E-002    -5.0141356587344505E-022
  -2.9799999999999993E-002    -5.0411995280605830E-022
  -2.8699999999999989E-002    -4.0304791289440627E-023
  -2.7599999999999986E-002     8.1002189155095235E-022
  -2.6499999999999996E-002     1.5688296406003249E-021
  -2.5399999999999992E-002     1.5096140446159125E-021
  -2.4299999999999988E-002     1.1448305494194202E-022
  -2.3199999999999985E-002    -2.3544692088634544E-021
  -2.2099999999999995E-002    -4.5720370702159952E-021
  -2.0999999999999991E-002    -4.5606699138932782E-021
  -1.9899999999999987E-002    -8.8018810934731583E-022
  -1.8799999999999983E-002     5.8887940873735044E-021
  -1.7699999999999994E-002     1.2365213647550393E-020
  -1.6599999999999990E-002     1.3314243790260617E-020
  -1.5499999999999986E-002     4.5950708643921955E-021
  -1.4399999999999996E-002    -1.2991240711954314E-020
  -1.3299999999999992E-002    -3.1364425421864062E-020
  -1.2199999999999989E-002    -3.6979159296334157E-020
  -1.1099999999999985E-002    -1.7826604340340445E-020
  -9.9999999999999950E-003     2.6595858327937296E-020
  -8.8999999999999913E-003     7.7999699476601672E-020
  -7.7999999999999875E-003     1.0159972440753356E-019
  -6.6999999999999837E-003     6.1884474178397609E-020
  -5.5999999999999939E-003    -5.1629786534391648E-020
  -4.4999999999999901E-003    -2.0115749224368732E-019
  -3.3999999999999864E-003    -2.9775212932693003E-019
  -2.2999999999999826E-003    -2.3280169381379084E-019
  -1.1999999999999927E-003     5.7286084332752257E-020
  -9.9999999999988987E-005     5.1717462244791257E-019
   1.0000000000000148E-003     9.3323699016482834E-019
   2.1000000000000185E-003     9.7545976380336403E-019
   3.2000000000000084E-003     3.4280632917346850E-019
   4.3000000000000121E-003    -1.0175555701461681E-018
   5.4000000000000159E-003    -2.7096405756773199E-018
   6.5000000000000058E-003    -3.8425446246319796E-018
   7.6000000000000234E-003    -3.2630500431876984E-018
   8.7000000000000133E-003    -1.0027844346588327E-019
   9.8000000000000032E-003     5.5076785414551576E-018
   1.0900000000000021E-002     1.1820954065394623E-017
   1.2000000000000011E-002     1.5471280441132823E-017
   1.3100000000000001E-002     1.2374178443460307E-017
   1.4200000000000018E-002    -3.5498508500736731E-019
   1.5300000000000008E-002    -2.1948289782847834E-017
   1.6400000000000026E-002    -4.6053132387905300E-017
   1.7500000000000016E-002    -6.0728501430534641E-017
   1.8600000000000005E-002    -5.1548266181708852E-017
   1.9700000000000023E-002    -7.9695849460052081E-018
   2.0800000000000013E-002     6.8573582681688133E-017
   2.1900000000000003E-002     1.5821338328427979E-016
   2.3000000000000020E-002     2.2220110881622698E-016
   2.4100000000000010E-002     2.1206525892690295E-016
   2.5200000000000000E-002     8.8877100118829502E-017
   2.6300000000000018E-002    -1.5182664330491680E-016
   2.7400000000000008E-002    -4.5906660448509688E-016
   2.8500000000000025E-002    -7.2180746250271038E-016
   2.9600000000000015E-002    -7.9108466772609027E-016
   3.0700000000000005E-002    -5.3118710267297746E-016
   3.1800000000000023E-002     1.1058762143055579E-016
   3.2900000000000013E-002     1.0394716745300537E-015
   3.4000000000000002E-002     1.9859081740328095E-015
   3.5100000000000020E-002     2.5439079559952221E-015
   3.6200000000000010E-002     2.2862307162543535E-015
   3.7300000000000028E-002     9.3845897537400217E-016
   3.8400000000000017E-002    -1.4383250005008162E-015
   3.9500000000000007E-002    -4.3295430328265462E-015
   4.0600000000000025E-002    -6.7880227536051587E-015
   4.1700000000000015E-002    -7.6387982867369271E-015
   4.2800000000000005E-002    -5.8555083439854561E-015
   4.3900000000000022E-002    -1.0238068292242217E-015
   4.5000000000000012E-002     6.2568489668759697E-015
   4.6100000000000002E-002     1.4210150362807053E-014
   4.7200000000000020E-002     2.0106973257716722E-014
   4.8300000000000010E-002     2.0930752196570802E-014
   4.9400000000000027E-002     1.4392757633639457E-014
   5.0500000000000017E-002     4.4973086069034969E-017
   5.1600000000000007E-002    -1.9883858126764595E-014
   5.2700000000000025E-002    -4.0330490019256420E-014
   5.3800000000000014E-002    -5.4208862794948709E-014
   5.4900000000000004E-002    -5.4229555040051886E-014
   5.6000000000000022E-002    -3.5414948583668354E-014
   5.7100000000000012E-002     2.3565199694265035E-015
   5.8200000000000002E-002     5.2670977172323849E-014
   5.9300000000000019E-002     1.0263943926232941E-013
   6.0400000000000009E-002     1.3523024262912954E-013
   6.1500000000000027E-002     1.3376810082705652E-013
   6.2600000000000017E-002     8.7701457155318714E-014
   6.3700000000000007E-002    -1.9686327447544017E-015
   6.4800000000000024E-002    -1.1954783794955597E-013
   6.5900000000000014E-002    -2.3550575232807741E-013
   6.7000000000000004E-002    -3.1214797919147434E-013
   6.8100000000000022E-002    -3.1351678099125728E-013
   6.9200000000000012E-002    -2.1738716358471858E-013
   7.0300000000000029E-002    -2.6016689206542720E-014
   7.1400000000000019E-002     2.2809063531330115E-013
   7.2500000000000009E-002     4.8441970603796197E-013
   7.3600000000000027E-002     6.6587394871329877E-013
   7.4700000000000016E-002     6.9802678311743381E-013
   7.5800000000000006E-002     5.3215203771615170E-013
   7.6900000000000024E-002     1.6600258961948811E-013
   7.8000000000000014E-002    -3.4430286323345393E-013
   7.9100000000000004E-002    -8.8673209654664736E-013
   8.0200000000000021E-002    -1.3126019336278765E-012
   8.1300000000000011E-002    -1.4708460982714202E-012
   8.2400000000000029E-002    -1.2508301939421118E-012
   8.3500000000000019E-002    -6.2342981949146422E-013
   8.4600000000000009E-002     3.3171240688043389E-013
   8.5700000000000026E-002     1.4236316214400063E-012
   8.6800000000000016E-002     2.3785192324415957E-012
   8.7900000000000006E-002     2.8981733681545476E-012
   8.9000000000000024E-002     2.7385263458063009E-012
   9.0100000000000013E-002     1.7903368341543172E-012
   9.1200000000000003E-002     1.3946097577128246E-013
   9.2300000000000021E-002    -1.9149342146797912E-012
   9.3400000000000011E-002    -3.8983901761333744E-012
   9.4500000000000028E-002    -5.2562687922871510E-012
   9.5600000000000018E-002    -5.4905421043412149E-012
   9.6700000000000008E-002    -4.3078404330784016E-012
   9.7800000000000026E-002    -1.7393529075687191E-012
   9.8900000000000016E-002     1.8059186963697536E-012
  0.10000000000000001          5.5810276302787609E-012
  0.10110000000000002          8.6390753316248513E-012
  0.10220000000000001          1.0048212070233770E-011
  0.10330000000000003          9.1385579595393245E-012
  0.10440000000000002          5.7208457182993873E-012
  0.10550000000000001          2.1550617739703368E-013
  0.10660000000000003         -6.3543385365287043E-012
  0.10770000000000002         -1.2524139940963536E-011
  0.10880000000000001         -1.6685169753313564E-011
  0.10990000000000003         -1.7463118032139489E-011
  0.11100000000000002         -1.4095881819037241E-011
  0.11210000000000001         -6.7169286290703496E-012
  0.11320000000000002          3.5394780921364575E-012
  0.11430000000000001          1.4663379651606387E-011
  0.11540000000000003          2.4127764437847439E-011
  0.11650000000000002          2.9426550550203851E-011
  0.11760000000000001          2.8684804419141059E-011
  0.11870000000000003          2.1200043009336123E-011
  0.11980000000000002          7.7701470181098790E-012
  0.12090000000000001         -9.3026115464763493E-012
  0.12200000000000003         -2.6574800592791105E-011
  0.12310000000000001         -4.0147130576068265E-011
  0.12420000000000003         -4.6538374085937319E-011
  0.12530000000000002         -4.3551579434759953E-011
  0.12640000000000001         -3.0917331033990388E-011
  0.12750000000000003         -1.0534687292523406E-011
  0.12860000000000002          1.3784407888903160E-011
  0.12970000000000001          3.7044516798132128E-011
  0.13080000000000003          5.4130434562563625E-011
  0.13190000000000002          6.0974401526281294E-011
  0.13300000000000001          5.5559959458004582E-011
  0.13410000000000000          3.8516574141350749E-011
  0.13520000000000004          1.3143914738633917E-011
  0.13630000000000003         -1.5175566698379420E-011
  0.13740000000000002         -4.0083120714525312E-011
  0.13850000000000001         -5.5654689674022767E-011
  0.13960000000000000         -5.7821876016614295E-011
  0.14070000000000005         -4.5481521157566333E-011
  0.14180000000000004         -2.1017090811352747E-011
  0.14290000000000003          9.9479193080638892E-012
  0.14400000000000002          3.9579036918509798E-011
  0.14510000000000001          5.9490584116128552E-011
  0.14620000000000000          6.2716103245119449E-011
  0.14730000000000004          4.5552916858000332E-011
  0.14840000000000003          8.8310338901802716E-012
  0.14950000000000002         -4.1750209596978086E-011
  0.15060000000000001         -9.6374969439265015E-011
  0.15170000000000000         -1.4284098452520470E-010
  0.15280000000000005         -1.6892785305318650E-010
  0.15390000000000004         -1.6486994257996430E-010
  0.15500000000000003         -1.2536853716192839E-010
  0.15610000000000002         -5.0685709431618869E-011
  0.15720000000000001          5.3424075585145447E-011
  0.15830000000000000          1.7686865418724809E-010
  0.15940000000000004          3.0716160521904970E-010
  0.16050000000000003          4.3161824695240716E-010
  0.16160000000000002          5.3925735974466339E-010
  0.16270000000000001          6.2196405961814322E-010
  0.16380000000000000          6.7475660532114473E-010
  0.16490000000000005          6.9512785421235088E-010
  0.16600000000000004          6.8155235514586021E-010
  0.16710000000000003          6.3135448991504808E-010
  0.16820000000000002          5.3828225276883316E-010
  0.16930000000000001          3.8997494467184117E-010
  0.17040000000000000          1.6557367174200664E-010
  0.17150000000000004         -1.6604413662747247E-010
  0.17260000000000003         -6.4746789229032761E-010
  0.17370000000000002         -1.3331714765382771E-009
  0.17480000000000001         -2.2897598806144439E-009
  0.17590000000000000         -3.5968941122236450E-009
  0.17700000000000005         -5.3481332363911944E-009
  0.17810000000000004         -7.6526740608461711E-009
  0.17920000000000003         -1.0637351062190046E-008
  0.18030000000000002         -1.4452592675479764E-008
  0.18140000000000001         -1.9283259109664166E-008
  0.18250000000000000         -2.5357342068114416E-008
  0.18360000000000004         -3.2953664409649456E-008
  0.18470000000000003         -4.2411594489613948E-008
  0.18580000000000002         -5.4147132593667689E-008
  0.18690000000000001         -6.8666719627838319E-008
  0.18800000000000000         -8.6591770262771258E-008
  0.18910000000000005         -1.0867372069940622E-007
  0.19020000000000004         -1.3580080801081037E-007
  0.19130000000000003         -1.6904276212999867E-007
  0.19240000000000002         -2.0966505221433734E-007
  0.19350000000000001         -2.5920744023653578E-007
  0.19460000000000005         -3.1943851615791952E-007
  0.19570000000000004         -3.9245046407367518E-007
  0.19680000000000003         -4.8072472307741215E-007
  0.19790000000000002         -5.8716806665603618E-007
  0.19900000000000001         -7.1510602883301317E-007
  0.20010000000000000         -8.6838982900036960E-007
  0.20120000000000005         -1.0513445000940760E-006
  0.20230000000000004         -1.2689915692221503E-006
  0.20340000000000003         -1.5272992907483271E-006
  0.20450000000000002         -1.8328944264171211E-006
  0.20560000000000000         -2.1931071514767161E-006
  0.20670000000000005         -2.6163188293352432E-006
  0.20780000000000004         -3.1123757775390896E-006
  0.20890000000000003         -3.6922088940518853E-006
  0.21000000000000002         -4.3677891564372519E-006
  0.21110000000000001         -5.1524736571142366E-006
  0.21220000000000000         -6.0608467253972708E-006
  0.21330000000000005         -7.1088830195321927E-006
  0.21440000000000003         -8.3147664104375504E-006
  0.21550000000000002         -9.6979445500682200E-006
  0.21660000000000001         -1.1280084268349423E-005
  0.21770000000000000         -1.3083496548142457E-005
  0.21880000000000005         -1.5132201491891961E-005
  0.21990000000000004         -1.7453447636588807E-005
  0.22100000000000003         -2.0075403192388503E-005
  0.22210000000000002         -2.3025125665927785E-005
  0.22320000000000001         -2.6332534353778712E-005
  0.22430000000000000         -3.0031383625234130E-005
  0.22540000000000004         -3.4153909999153712E-005
  0.22650000000000003         -3.8732022031206443E-005
  0.22760000000000002         -4.3799590979559281E-005
  0.22870000000000001         -4.9391552159875048E-005
  0.22980000000000000         -5.5540978996487637E-005
  0.23090000000000005         -6.2277871546975865E-005
  0.23200000000000004         -6.9630500085665487E-005
  0.23310000000000003         -7.7630005593766078E-005
  0.23420000000000002         -8.6307297050497426E-005
  0.23530000000000001         -9.5674284386476112E-005
  0.23640000000000000         -1.0575240876835990E-004
  0.23750000000000004         -1.1655123623734103E-004
  0.23860000000000003         -1.2808432396487859E-004
  0.23970000000000002         -1.4036120598240554E-004
  0.24080000000000001         -1.5336125098443606E-004
  0.24190000000000000         -1.6706538957262184E-004
  0.24300000000000005         -1.8145314865829443E-004
  0.24410000000000004         -1.9651430136799722E-004
  0.24520000000000003         -2.1219586588362517E-004
  0.24630000000000002         -2.2844289551269935E-004
  0.24740000000000001         -2.4518626768492148E-004
  0.24850000000000005         -2.6237032400570741E-004
  0.24960000000000004         -2.7988563459792727E-004
  0.25070000000000003         -2.9763594277845771E-004
  0.25180000000000002         -3.1555388057231975E-004
  0.25290000000000001         -3.3352826279023839E-004
  0.25400000000000000         -3.5139282231759050E-004
  0.25510000000000005         -3.6899993321303653E-004
  0.25620000000000004         -3.8625025847915614E-004
  0.25730000000000003         -4.0299397183326613E-004
  0.25840000000000002         -4.1906695484265937E-004
  0.25950000000000001         -4.3429098284539778E-004
  0.26060000000000005         -4.4855566375447142E-004
  0.26170000000000004         -4.6177115341865021E-004
  0.26280000000000003         -4.7364156563632197E-004
  0.26390000000000002         -4.8403082370055556E-004
  0.26500000000000001         -4.9280037873785081E-004
  0.26610000000000000         -4.9985168389193987E-004
  0.26720000000000005         -5.0509209399527528E-004
  0.26830000000000004         -5.0832048081662885E-004
  0.26940000000000003         -5.0937444301339457E-004
  0.27050000000000002         -5.0835547107452752E-004
  0.27160000000000001         -5.0523338780483588E-004
  0.27270000000000005         -4.9987942689428604E-004
  0.27380000000000004         -4.9215466930503410E-004
  0.27490000000000003         -4.8203708013920294E-004
  0.27600000000000002         -4.6974387142800517E-004
  0.27710000000000001         -4.5524195229699885E-004
  0.27820000000000000         -4.3854772135727314E-004
  0.27930000000000005         -4.1969911247434364E-004
  0.28040000000000004         -3.9883199341931718E-004
  0.28150000000000003         -3.7624131150850208E-004
  0.28260000000000002         -3.5201360939978566E-004
  0.28370000000000001         -3.2643470231669987E-004
  0.28480000000000005         -2.9941965477760029E-004
  0.28590000000000004         -2.7124081612115266E-004
  0.28700000000000003         -2.4210306507750818E-004
  0.28810000000000002         -2.1223155731565801E-004
  0.28920000000000001         -1.8195312277445526E-004
  0.29030000000000000         -1.5159999697978213E-004
  0.29140000000000005         -1.2136179746844285E-004
  0.29250000000000004         -9.1244189325412223E-005
  0.29360000000000003         -6.1420762569012566E-005
  0.29470000000000002         -3.2247936141356814E-005
  0.29580000000000001         -4.0489085965076283E-006
  0.29690000000000005          2.3032769806198969E-005
  0.29800000000000004          4.8744195125898125E-005
  0.29910000000000003          7.2989877809002301E-005
  0.30020000000000002          9.5643419124591403E-005
  0.30130000000000001          1.1662358530673615E-004
  0.30240000000000000          1.3587273552213974E-004
  0.30350000000000005          1.5329482288857653E-004
  0.30460000000000004          1.6883727558408590E-004
  0.30570000000000003          1.8234400419438713E-004
  0.30680000000000002          1.9382518710093415E-004
  0.30790000000000001          2.0333672513232057E-004
  0.30900000000000005          2.1092652769477417E-004
  0.31010000000000004          2.1658742658508089E-004
  0.31120000000000003          2.2033887363736941E-004
  0.31230000000000002          2.2228222572407167E-004
  0.31340000000000001          2.2257297597178498E-004
  0.31450000000000006          2.2135739180173801E-004
  0.31560000000000005          2.1872856126230628E-004
  0.31670000000000004          2.1478689020135505E-004
  0.31780000000000003          2.0964694693478280E-004
  0.31890000000000002          2.0343634089059487E-004
  0.32000000000000001          1.9625799780027258E-004
  0.32110000000000005          1.8824444330505804E-004
  0.32220000000000004          1.7956643017065171E-004
  0.32330000000000003          1.7043907775972044E-004
  0.32440000000000002          1.6100532512564956E-004
  0.32550000000000001          1.5129981528282335E-004
  0.32660000000000006          1.4141715580315108E-004
  0.32770000000000005          1.3144133460952500E-004
  0.32880000000000004          1.2150829352686998E-004
  0.32990000000000003          1.1170549291902790E-004
  0.33100000000000002          1.0210212301982152E-004
  0.33210000000000001          9.2843029089151191E-005
  0.33320000000000005          8.3996621046470124E-005
  0.33430000000000004          7.5611215564543448E-005
  0.33540000000000003          6.7687349970352724E-005
  0.33650000000000002          6.0230239430733226E-005
  0.33760000000000001          5.3201043160012986E-005
  0.33870000000000006          4.6675575137676324E-005
  0.33980000000000005          4.0690163478482675E-005
  0.34090000000000004          3.5274342647946117E-005
  0.34200000000000003          3.0450979346072705E-005
  0.34310000000000002          2.6239587669706935E-005
  0.34420000000000001          2.2533353408729292E-005
  0.34530000000000005          1.9271352858503917E-005
  0.34640000000000004          1.6467263735545742E-005
  0.34750000000000003          1.4138936153255610E-005
  0.34860000000000002          1.2309230345003658E-005
  0.34970000000000001          1.0918944827512966E-005
  0.35080000000000006          9.8958775769948846E-006
  0.35190000000000005          9.2442778318587935E-006
  0.35300000000000004          8.9697983658474869E-006
  0.35410000000000003          9.0611085710732610E-006
  0.35520000000000002          9.4557147919893835E-006
  0.35630000000000001          1.0133204753864099E-005
  0.35740000000000005          1.1117332363358119E-005
  0.35850000000000004          1.2454041625482913E-005
  0.35960000000000003          1.4129401434683055E-005
  0.36070000000000002          1.6121689517252241E-005
  0.36180000000000001          1.8431082714474600E-005
  0.36290000000000006          2.1092614383000662E-005
  0.36400000000000005          2.4150917450397972E-005
  0.36510000000000004          2.7637636664380287E-005
  0.36620000000000003          3.1622950863405893E-005
  0.36730000000000002          3.6165749316925847E-005
  0.36840000000000006          4.1272360596741452E-005
  0.36950000000000005          4.6982091183905666E-005
  0.37060000000000004          5.3388533273322363E-005
  0.37170000000000003          6.0639264366721697E-005
  0.37280000000000002          6.8865481389239735E-005
  0.37390000000000001          7.8126402217965725E-005
  0.37500000000000006          8.8502319967908384E-005
  0.37610000000000005          1.0013054430604626E-004
  0.37720000000000004          1.1318301462772887E-004
  0.37830000000000003          1.2775177212350034E-004
  0.37940000000000002          1.4390142524039015E-004
  0.38050000000000006          1.6179353436420821E-004
  0.38160000000000005          1.8166401964604280E-004
  0.38270000000000004          2.0373606047096107E-004
  0.38380000000000003          2.2812699471962459E-004
  0.38490000000000002          2.5489255198055490E-004
  0.38600000000000001          2.8413222414191026E-004
  0.38710000000000000          3.1603451835220044E-004
  0.38819999999999999          3.5075007380785294E-004
  0.38930000000000009          3.8839139742431050E-004
  0.39040000000000008          4.2907089367169495E-004
  0.39150000000000007          4.7293758514338393E-004
  0.39260000000000006          5.2006844411749261E-004
  0.39370000000000005          5.7045770521436283E-004
  0.39480000000000004          6.2405868404748687E-004
  0.39590000000000003          6.8089671461072417E-004
  0.39700000000000002          7.4099503342048355E-004
  0.39810000000000001          8.0428611211594866E-004
  0.39920000000000000          8.7060794008324391E-004
  0.40029999999999999          9.3980019335431972E-004
  0.40140000000000009          1.0117037100332773E-003
  0.40250000000000008          1.0860606983410744E-003
  0.40360000000000007          1.1625048683411145E-003
  0.40470000000000006          1.2406481009073021E-003
  0.40580000000000005          1.3201371954893546E-003
  0.40690000000000004          1.4005917066696968E-003
  0.40800000000000003          1.4814769615785054E-003
  0.40910000000000002          1.5621729427014925E-003
  0.41020000000000001          1.6421041929686804E-003
  0.41130000000000000          1.7207036897125959E-003
  0.41239999999999999          1.7972837006196142E-003
  0.41350000000000009          1.8710013625989818E-003
  0.41460000000000008          1.9410375877219883E-003
  0.41570000000000007          2.0067154130382126E-003
  0.41680000000000006          2.0674021377935065E-003
  0.41790000000000005          2.1223029955031963E-003
  0.41900000000000004          2.1704926199313749E-003
  0.42010000000000003          2.2111020760767061E-003
  0.42120000000000002          2.2434516336984653E-003
  0.42230000000000001          2.2669032205096728E-003
  0.42340000000000000          2.2807808647441700E-003
  0.42449999999999999          2.2844326552983012E-003
  0.42560000000000009          2.2773765310705020E-003
  0.42670000000000008          2.2592032016086590E-003
  0.42780000000000007          2.2295093994073411E-003
  0.42890000000000006          2.1878732854773786E-003
  0.43000000000000005          2.1340816487455854E-003
  0.43110000000000004          2.0681305841905033E-003
  0.43220000000000003          1.9901763695832925E-003
  0.43330000000000002          1.9003942858780384E-003
  0.43440000000000001          1.7990521617611017E-003
  0.43550000000000000          1.6866039327240456E-003
  0.43659999999999999          1.5636028292147267E-003
  0.43770000000000009          1.4306046580432061E-003
  0.43880000000000008          1.2882814489146609E-003
  0.43990000000000007          1.1375539802996862E-003
  0.44100000000000006          9.7958747714255731E-004
  0.44210000000000005          8.1555815043533745E-004
  0.44320000000000004          6.4651818723268455E-004
  0.44430000000000003          4.7350940992570389E-004
  0.44540000000000002          2.9780227533781229E-004
  0.44650000000000001          1.2080089393185186E-004
  0.44760000000000000         -5.6143486592162296E-005
  0.44869999999999999         -2.3181775536234553E-004
  0.44980000000000009         -4.0489097850483020E-004
  0.45090000000000008         -5.7395767868026080E-004
  0.45200000000000007         -7.3770125457352221E-004
  0.45310000000000006         -8.9511317824732045E-004
  0.45420000000000005         -1.0452983474383186E-003
  0.45530000000000004         -1.1872055118892643E-003
  0.45640000000000003         -1.3196897070021133E-003
  0.45750000000000002         -1.4418474007353679E-003
  0.45860000000000001         -1.5530840789690610E-003
  0.45970000000000000         -1.6529197932788767E-003
  0.46079999999999999         -1.7408725471769852E-003
  0.46190000000000009         -1.8165505915673629E-003
  0.46300000000000008         -1.8798312300157111E-003
  0.46410000000000007         -1.9308046853851019E-003
  0.46520000000000006         -1.9695225208630229E-003
  0.46630000000000005         -1.9960186856235944E-003
  0.46740000000000004         -2.0105130895544760E-003
  0.46850000000000003         -2.0134647566677948E-003
  0.46960000000000002         -2.0054589147917145E-003
  0.47070000000000001         -1.9870814336364591E-003
  0.47180000000000000         -1.9590236548481352E-003
  0.47289999999999999         -1.9220905513822346E-003
  0.47400000000000009         -1.8770878154269464E-003
  0.47510000000000008         -1.8246513184728020E-003
  0.47620000000000007         -1.7654477042005944E-003
  0.47730000000000006         -1.7003896161214903E-003
  0.47840000000000005         -1.6306497634478105E-003