 -0.12000000000000000          0.0000000000000000     
 -0.11889999999999999          0.0000000000000000     
 -0.11780000000000000          0.0000000000000000     
 -0.11670000000000000          0.0000000000000000     
 -0.11559999999999999          0.0000000000000000     
 -0.11449999999999999          0.0000000000000000     
 -0.11340000000000000          0.0000000000000000     
 -0.11230000000000000          0.0000000000000000     
 -0.11119999999999999          0.0000000000000000     
 -0.11009999999999999          0.0000000000000000     
 -0.10900000000000000          0.0000000000000000     
 -0.10790000000000000         -8.3883967562868197E-048
 -0.10679999999999999          1.5082610787875794E-042
 -0.10569999999999999          7.4699398083928925E-041
 -0.10460000000000000          1.3032054953852491E-039
 -0.10349999999999999          1.3882105643217992E-038
 -0.10239999999999999          1.0479037903464622E-037
 -0.10130000000000000          5.9755670829213900E-037
 -0.10020000000000000          2.6741726280261776E-036
  -9.9099999999999994E-002     9.6500203934756574E-036
  -9.7999999999999990E-002     2.8654576381454591E-035
  -9.6899999999999986E-002     7.0995486228039317E-035
  -9.5799999999999996E-002     1.4732405412334721E-034
  -9.4699999999999993E-002     2.5054317564796177E-034
  -9.3599999999999989E-002     3.1303517104169159E-034
  -9.2499999999999999E-002     1.2328883132100000E-034
  -9.1399999999999995E-002    -7.5245417784389828E-034
  -9.0299999999999991E-002    -2.7629905571418490E-033
  -8.9200000000000002E-002    -5.2492266955941819E-033
  -8.8099999999999984E-002    -4.1192536986196663E-033
  -8.6999999999999994E-002     9.1685127605282541E-033
  -8.5899999999999990E-002     3.9102226710050547E-032
  -8.4799999999999986E-002     5.8215385335318687E-032
  -8.3699999999999997E-002    -2.9055644316497993E-032
  -8.2599999999999993E-002    -3.6025259745534020E-031
  -8.1499999999999989E-002    -8.9574260755445114E-031
  -8.0399999999999999E-002    -9.6138229837105679E-031
  -7.9299999999999995E-002     1.0586207817922779E-030
  -7.8199999999999992E-002     6.7676905239802763E-030
  -7.7100000000000002E-002     1.4250835133464339E-029
  -7.5999999999999984E-002     1.2778992380964912E-029
  -7.4899999999999994E-002    -1.8121572835469840E-029
  -7.3799999999999991E-002    -9.3225192137742114E-029
  -7.2699999999999987E-002    -1.8129191729659600E-028
  -7.1599999999999997E-002    -1.5741436954919522E-028
  -7.0499999999999993E-002     1.8580933451800525E-028
  -6.9399999999999989E-002     9.6849420154978547E-028
  -6.8300000000000000E-002     1.8591027897587815E-027
  -6.7199999999999996E-002     1.7161270154539792E-027
  -6.6099999999999992E-002    -1.2137983910080382E-027
  -6.5000000000000002E-002    -7.8562893126532935E-027
  -6.3899999999999985E-002    -1.5571183129650724E-026
  -6.2799999999999995E-002    -1.5778777484178149E-026
  -6.1699999999999991E-002     4.2548618708396164E-027
  -6.0599999999999994E-002     5.1382218285673796E-026
  -5.9499999999999990E-002     1.0881403800829085E-025
  -5.8399999999999994E-002     1.2175297040117297E-025
  -5.7299999999999990E-002     9.0537015009266357E-027
  -5.6199999999999986E-002    -2.7700935499529853E-025
  -5.5099999999999996E-002    -6.4869065499459484E-025
  -5.3999999999999992E-002    -8.0163277117438078E-025
  -5.2899999999999989E-002    -2.7477282858438349E-025
  -5.1799999999999985E-002     1.2380019683486882E-024
  -5.0699999999999995E-002     3.3589827207331120E-024
  -4.9599999999999991E-002     4.5950379044091396E-024
  -4.8499999999999988E-002     2.5819212051268937E-024
  -4.7399999999999998E-002    -4.4709399667388125E-024
  -4.6299999999999994E-002    -1.5278572378377765E-023
  -4.5199999999999990E-002    -2.3315962672225437E-023
  -4.4099999999999986E-002    -1.7551835904194375E-023
  -4.2999999999999997E-002     1.1551154977736287E-023
  -4.1899999999999993E-002     6.1155774980618545E-023
  -4.0799999999999989E-002     1.0584737059055609E-022
  -3.9699999999999985E-002     9.8598138753826196E-023
  -3.8599999999999995E-002    -6.9127740082457535E-024
  -3.7499999999999992E-002    -2.1267711886926026E-022
  -3.6399999999999988E-002    -4.3136996564096186E-022
  -3.5299999999999984E-002    -4.7986537766003006E-022
  -3.4199999999999994E-002    -1.5284636353187209E-022
  -3.3099999999999991E-002     6.1619899440210547E-022
  -3.1999999999999987E-002     1.5704284279065235E-021
  -3.0899999999999997E-002     2.0619887494555995E-021
  -2.9799999999999993E-002     1.2612211770780967E-021
  -2.8699999999999989E-002    -1.2994758891026537E-021
  -2.7599999999999986E-002    -5.0254621165559314E-021
  -2.6499999999999996E-002    -7.8595113337024961E-021
  -2.5399999999999992E-002    -6.7566827029376104E-021
  -2.4299999999999988E-002     6.5290743055459240E-022
  -2.3199999999999985E-002     1.3623519875490858E-020
  -2.2099999999999995E-002     2.6428405763254916E-020
  -2.0999999999999991E-002     2.8989674469327162E-020
  -1.9899999999999987E-002     1.1385725024277488E-020
  -1.8799999999999983E-002    -2.8398123677273726E-020
  -1.7699999999999994E-002    -7.7080308534207044E-020
  -1.6599999999999990E-002    -1.0494883947593596E-019
  -1.5499999999999986E-002    -7.6256757803674705E-020
  -1.4399999999999996E-002     2.8611165299579730E-020
  -1.3299999999999992E-002     1.8756397691941196E-019
  -1.2199999999999989E-002     3.2428997808525016E-019
  -1.1099999999999985E-002     3.2655601993010847E-019
  -9.9999999999999950E-003     1.0224645208908581E-019
  -8.8999999999999913E-003    -3.4260371234907984E-019
  -7.7999999999999875E-003    -8.4504777511624136E-019
  -6.6999999999999837E-003    -1.0988808131790211E-018
  -5.5999999999999939E-003    -7.7552625144298156E-019
  -4.4999999999999901E-003     2.6648361988449298E-019
  -3.3999999999999864E-003     1.7738476303916338E-018
  -2.2999999999999826E-003     3.0341028893106647E-018
  -1.1999999999999927E-003     3.0797144424873520E-018
  -9.9999999999988987E-005     1.1762873163411045E-018
   1.0000000000000148E-003    -2.5693693019265684E-018
   2.1000000000000185E-003    -6.8132995430534899E-018
   3.2000000000000084E-003    -9.1606589420822184E-018
   4.3000000000000121E-003    -7.1209219350991134E-018
   5.4000000000000159E-003     3.7900180357452501E-019
   6.5000000000000058E-003     1.1596696747631067E-017
   7.6000000000000234E-003     2.1625407074334853E-017
   8.7000000000000133E-003     2.3826101189283098E-017
   9.8000000000000032E-003     1.3014313242806368E-017
   1.0900000000000021E-002    -1.0720300190911371E-017
   1.2000000000000011E-002    -3.9589691420045821E-017
   1.3100000000000001E-002    -5.9176775044661221E-017
   1.4200000000000018E-002    -5.3920397405975310E-017
   1.5300000000000008E-002    -1.5692440267842030E-017
   1.6400000000000026E-002     4.8264395937155968E-017
   1.7500000000000016E-002     1.1295878953739704E-016
   1.8600000000000005E-002     1.4251534805514833E-016
   1.9700000000000023E-002     1.0605858127002893E-016
   2.0800000000000013E-002    -2.9220890777057127E-018
   2.1900000000000003E-002    -1.5341599785421616E-016
   2.3000000000000020E-002    -2.7975927724037169E-016
   2.4100000000000010E-002    -3.0487637473055992E-016
   2.5200000000000000E-002    -1.7830498349010578E-016
   2.6300000000000018E-002     8.6888688669827728E-017
   2.7400000000000008E-002     3.9911200802725957E-016
   2.8500000000000025E-002     6.1086763513348792E-016
   2.9600000000000015E-002     5.7909943471556435E-016
   3.0700000000000005E-002     2.4261542792527237E-016
   3.1800000000000023E-002    -3.1999225442469492E-016
   3.2900000000000013E-002    -8.8922331863944950E-016
   3.4000000000000002E-002    -1.1780336204351509E-015
   3.5100000000000020E-002    -9.6221521458018850E-016
   3.6200000000000010E-002    -2.1441929391466029E-016
   3.7300000000000028E-002     8.2860912939815201E-016
   3.8400000000000017E-002     1.7195126586971086E-015
   3.9500000000000007E-002     1.9781084637810359E-015
   4.0600000000000025E-002     1.3312466938198182E-015
   4.1700000000000015E-002    -9.6909396938626702E-017
   4.2800000000000005E-002    -1.7575073253174886E-015
   4.3900000000000022E-002    -2.8665049901188433E-015
   4.5000000000000012E-002    -2.7615449716447760E-015
   4.6100000000000002E-002    -1.2745506961136732E-015
   4.7200000000000020E-002     1.0761607880133017E-015
   4.8300000000000010E-002     3.2189279895509315E-015
   4.9400000000000027E-002     3.9888279271758821E-015
   5.0500000000000017E-002     2.7388681782038590E-015
   5.1600000000000007E-002    -1.9723959424816951E-016
   5.2700000000000025E-002    -3.4787404090193001E-015
   5.3800000000000014E-002    -5.2834974129929387E-015
   5.4900000000000004E-002    -4.2243193747155581E-015
   5.6000000000000022E-002    -2.4071698523172419E-016
   5.7100000000000012E-002     5.0350622551266136E-015
   5.8200000000000002E-002     8.7698925129951697E-015
   5.9300000000000019E-002     8.2202473339470276E-015
   6.0400000000000009E-002     2.3095588458210005E-015
   6.1500000000000027E-002    -7.3006770631893637E-015
   6.2600000000000017E-002    -1.6357113192445939E-014
   6.3700000000000007E-002    -1.9604479532761051E-014
   6.4800000000000024E-002    -1.3327666310888037E-014
   6.5900000000000014E-002     2.2656323551289165E-015
   6.7000000000000004E-002     2.2104181687045354E-014
   6.8100000000000022E-002     3.7572708321170155E-014
   6.9200000000000012E-002     3.9922662982502764E-014
   7.0300000000000029E-002     2.4504708566439138E-014
   7.1400000000000019E-002    -6.1109300756653277E-015
   7.2500000000000009E-002    -4.1863776535797633E-014
   7.3600000000000027E-002    -6.8410786458365981E-014
   7.4700000000000016E-002    -7.2834285346587600E-014
   7.5800000000000006E-002    -4.9509854595314548E-014
   7.6900000000000024E-002    -3.4100777322410560E-015
   7.8000000000000014E-002     5.0950753718038276E-014
   7.9100000000000004E-002     9.4791718884515717E-014
   8.0200000000000021E-002     1.1236171972303469E-013
   8.1300000000000011E-002     9.6942769696185338E-014
   8.2400000000000029E-002     5.2769394098414507E-014
   8.3500000000000019E-002    -7.8752912237165817E-015
   8.4600000000000009E-002    -7.0532502266699604E-014
   8.5700000000000026E-002    -1.2385615656529833E-013
   8.6800000000000016E-002    -1.6109154590677662E-013
   8.7900000000000006E-002    -1.7698678150329175E-013
   8.9000000000000024E-002    -1.6280319974618379E-013
   9.0100000000000013E-002    -1.0443182884680186E-013
   9.1200000000000003E-002     1.1978852548452674E-014
   9.2300000000000021E-002     1.8653096919134515E-013
   9.3400000000000011E-002     3.8985372074436015E-013
   9.4500000000000028E-002     5.5550688182727911E-013
   9.5600000000000018E-002     5.9087860174367815E-013
   9.6700000000000008E-002     4.1046009988098147E-013
   9.7800000000000026E-002    -1.6171745063644519E-014
   9.8900000000000016E-002    -6.2115984515500107E-013
  0.10000000000000001         -1.2250715829775942E-012
  0.10110000000000002         -1.5728357844094723E-012
  0.10220000000000001         -1.4203561703636848E-012
  0.10330000000000003         -6.4857079926485958E-013
  0.10440000000000002          6.3938904197194056E-013
  0.10550000000000001          2.0884466008770676E-012
  0.10660000000000003          3.1637459148703888E-012
  0.10770000000000002          3.3227295146598987E-012
  0.10880000000000001          2.2397704100446934E-012
  0.10990000000000003          3.9023402589504168E-016
  0.11100000000000002         -2.8254579395151085E-012
  0.11210000000000001         -5.2913726092480612E-012
  0.11320000000000002         -6.3612759922532842E-012
  0.11430000000000001         -5.2974407653465572E-012
  0.11540000000000003         -2.0145009686013328E-012
  0.11650000000000002          2.7487421402273905E-012
  0.11760000000000001          7.5427559943357856E-012
  0.11870000000000003          1.0614434733413861E-011
  0.11980000000000002          1.0502919742844341E-011
  0.12090000000000001          6.6291094478254604E-012
  0.12200000000000003         -3.4348979309449114E-013
  0.12310000000000001         -8.5445207130196637E-012
  0.12420000000000003         -1.5371589299547174E-011
  0.12530000000000002         -1.8289641852048365E-011
  0.12640000000000001         -1.5708083628789063E-011
  0.12750000000000003         -7.6337334470186912E-012
  0.12860000000000002          4.1519085337043559E-012
  0.12970000000000001          1.6495649731186774E-011
  0.13080000000000003          2.5762822576425014E-011
  0.13190000000000002          2.8942535934818926E-011
  0.13300000000000001          2.4602598868857841E-011
  0.13410000000000000          1.3362933200787679E-011
  0.13520000000000004         -2.2854153950421645E-012
  0.13630000000000003         -1.8756558654190973E-011
  0.13740000000000002         -3.2459028867581449E-011
  0.13850000000000001         -4.0788947764566195E-011
  0.13960000000000000         -4.2646556182995362E-011
  0.14070000000000005         -3.8283924668290008E-011
  0.14180000000000004         -2.8581151789685412E-011
  0.14290000000000003         -1.4130352875106213E-011
  0.14400000000000002          5.3415377056829119E-012
  0.14510000000000001          3.0749280395865941E-011
  0.14620000000000000          6.2468764180553187E-011
  0.14730000000000004          9.8503311896907428E-011
  0.14840000000000003          1.3275121769267893E-010
  0.14950000000000002          1.5436904282033888E-010
  0.15060000000000001          1.4909511936525761E-010
  0.15170000000000000          1.0285182554976005E-010
  0.15280000000000005          7.0980749314157028E-012
  0.15390000000000004         -1.3547954670648438E-010
  0.15500000000000003         -3.0692512980147941E-010
  0.15610000000000002         -4.7357977905211904E-010
  0.15720000000000001         -5.9045440711463920E-010
  0.15830000000000000         -6.1024883033798186E-010
  0.15940000000000004         -4.9529240956589689E-010
  0.16050000000000003         -2.2944774273894978E-010
  0.16160000000000002          1.7338383135010615E-010
  0.16270000000000001          6.6683404621089294E-010
  0.16380000000000000          1.1767631927497919E-009
  0.16490000000000005          1.6120657683015163E-009
  0.16600000000000004          1.8788298705636399E-009
  0.16710000000000003          1.8943754015685594E-009
  0.16820000000000002          1.5983347452611181E-009
  0.16930000000000001          9.5972855811497093E-010
  0.17040000000000000         -1.8817678450026019E-011
  0.17150000000000004         -1.2970282235194322E-009
  0.17260000000000003         -2.7904210527691098E-009
  0.17370000000000002         -4.3604669250360115E-009
  0.17480000000000001         -5.8040294834648156E-009
  0.17590000000000000         -6.8481588139709140E-009
  0.17700000000000005         -7.1583822641521063E-009
  0.17810000000000004         -6.3679019565071078E-009
  0.17920000000000003         -4.1310990698942091E-009
  0.18030000000000002         -1.9827730610712723E-010
  0.18140000000000001          5.4984386157358289E-009
  0.18250000000000000          1.2763116746846308E-008
  0.18360000000000004          2.1073839183651830E-008
  0.18470000000000003          2.9551937339442943E-008
  0.18580000000000002          3.6965653238585292E-008
  0.18690000000000001          4.1760953459467557E-008
  0.18800000000000000          4.2103524953136918E-008
  0.18910000000000005          3.5911967589954130E-008
  0.19020000000000004          2.0864429699388502E-008
  0.19130000000000003         -5.6316139641989049E-009
  0.19240000000000002         -4.6506743623870327E-008
  0.19350000000000001         -1.0512640594107030E-007
  0.19460000000000005         -1.8540675849503894E-007
  0.19570000000000004         -2.9194381965331200E-007
  0.19680000000000003         -4.3016145451124300E-007
  0.19790000000000002         -6.0649687533585537E-007
  0.19900000000000001         -8.2865280473755659E-007
  0.20010000000000000         -1.1059490431617774E-006
  0.20120000000000005         -1.4497978422672388E-006
  0.20230000000000004         -1.8743127516600269E-006
  0.20340000000000003         -2.3970417216743743E-006
  0.20450000000000002         -3.0397996782839809E-006
  0.20560000000000000         -3.8295692597615132E-006
  0.20670000000000005         -4.7994482455151347E-006
  0.20780000000000004         -5.9896437164850212E-006
  0.20890000000000003         -7.4485317670524352E-006
  0.21000000000000002         -9.2338408449523453E-006
  0.21110000000000001         -1.1414012027280938E-005
  0.21220000000000000         -1.4069813318450335E-005
  0.21330000000000005         -1.7296231597265357E-005
  0.21440000000000003         -2.1204679014644701E-005
  0.21550000000000002         -2.5925496772783045E-005
  0.21660000000000001         -3.1610719178508959E-005
  0.21770000000000000         -3.8437090839113634E-005
  0.21880000000000005         -4.6609324159235804E-005
  0.21990000000000004         -5.6363570760837995E-005
  0.22100000000000003         -6.7971190766854980E-005
  0.22210000000000002         -8.1742806443266377E-005
  0.22320000000000001         -9.8032698560978471E-005
  0.22430000000000000         -1.1724349215040203E-004
  0.22540000000000004         -1.3983110994715287E-004
  0.22650000000000003         -1.6630980391321712E-004
  0.22760000000000002         -1.9725723059612835E-004
  0.22870000000000001         -2.3331932865610359E-004
  0.22980000000000000         -2.7521494229268401E-004
  0.23090000000000005         -3.2373994369431152E-004
  0.23200000000000004         -3.7977091642422305E-004
  0.23310000000000003         -4.4426816173707121E-004
  0.23420000000000002         -5.1827817369997677E-004
  0.23530000000000001         -6.0293505912083689E-004
  0.23640000000000000         -6.9946098431058286E-004
  0.23750000000000004         -8.0916526151685974E-004
  0.23860000000000003         -9.3344163222324264E-004
  0.23970000000000002         -1.0737633269131785E-003
  0.24080000000000001         -1.2316763902031451E-003
  0.24190000000000000         -1.4087897680088199E-003
  0.24300000000000005         -1.6067626175427395E-003
  0.24410000000000004         -1.8272886202585115E-003
  0.24520000000000003         -2.0720785597694298E-003
  0.24630000000000002         -2.3428380530222774E-003
  0.24740000000000001         -2.6412424058681596E-003
  0.24850000000000005         -2.9689077841063430E-003
  0.24960000000000004         -3.3273596093835365E-003
  0.25070000000000003         -3.7179963889380808E-003
  0.25180000000000002         -4.1420494967849743E-003
  0.25290000000000001         -4.6005411678451957E-003
  0.25400000000000000         -5.0942388994868340E-003
  0.25510000000000005         -5.6236097650028856E-003
  0.25620000000000004         -6.1887674679696617E-003
  0.25730000000000003         -6.7894282931012604E-003
  0.25840000000000002         -7.4248574147574489E-003
  0.25950000000000001         -8.0938233328875942E-003
  0.26060000000000005         -8.7945539770739149E-003
  0.26170000000000004         -9.5246876505659314E-003
  0.26280000000000003         -1.0281237347236563E-002
  0.26390000000000002         -1.1060559279112370E-002
  0.26500000000000001         -1.1858321244094003E-002
  0.26610000000000000         -1.2669485582155159E-002
  0.26720000000000005         -1.3488302066490746E-002
  0.26830000000000004         -1.4308306114820410E-002
  0.26940000000000003         -1.5122335704120478E-002
  0.27050000000000002         -1.5922557590061687E-002
  0.27160000000000001         -1.6700511347304700E-002
  0.27270000000000005         -1.7447160089964605E-002
  0.27380000000000004         -1.8152963330380075E-002
  0.27490000000000003         -1.8807967740702963E-002
  0.27600000000000002         -1.9401897546503833E-002
  0.27710000000000001         -1.9924266179170039E-002
  0.27820000000000000         -2.0364506629943928E-002
  0.27930000000000005         -2.0712113386523907E-002
  0.28040000000000004         -2.0956783977369834E-002
  0.28150000000000003         -2.1088587947688139E-002
  0.28260000000000002         -2.1098122754123056E-002
  0.28370000000000001         -2.0976687351317976E-002
  0.28480000000000005         -2.0716442894068730E-002
  0.28590000000000004         -2.0310583889155583E-002
  0.28700000000000003         -1.9753488969673827E-002
  0.28810000000000002         -1.9040870869376451E-002
  0.28920000000000001         -1.8169920441446535E-002
  0.29030000000000000         -1.7139429525035860E-002
  0.29140000000000005         -1.5949894022661146E-002
  0.29250000000000004         -1.4603589971930817E-002
  0.29360000000000003         -1.3104636545436471E-002
  0.29470000000000002         -1.1459024280058114E-002
  0.29580000000000001         -9.6746168406163843E-003
  0.29690000000000005         -7.7611249128342365E-003
  0.29800000000000004         -5.7300529078946096E-003
  0.29910000000000003         -3.5946063827908331E-003
  0.30020000000000002         -1.3695764740862264E-003
  0.30130000000000001          9.2881093734513941E-004
  0.30240000000000000          3.2830705565796746E-003
  0.30350000000000005          5.6746583103798945E-003
  0.30460000000000004          8.0841903633341386E-003
  0.30570000000000003          1.0491679948056568E-002
  0.30680000000000002          1.2876789032770317E-002
  0.30790000000000001          1.5219094226314067E-002
  0.30900000000000005          1.7498356221603062E-002
  0.31010000000000004          1.9694784296350736E-002
  0.31120000000000003          2.1789316973090833E-002
  0.31230000000000002          2.3763864398863653E-002
  0.31340000000000001          2.5601555714098442E-002
  0.31450000000000006          2.7286963353251998E-002
  0.31560000000000005          2.8806303401493483E-002
  0.31670000000000004          3.0147607340411067E-002
  0.31780000000000003          3.1300868254455556E-002
  0.31890000000000002          3.2258171428502166E-002
  0.32000000000000001          3.3013766121435563E-002
  0.32110000000000005          3.3564121198030664E-002
  0.32220000000000004          3.3907938758775055E-002
  0.32330000000000003          3.4046124571294759E-002
  0.32440000000000002          3.3981745747934576E-002
  0.32550000000000001          3.3719942895683731E-002
  0.32660000000000006          3.3267799392948369E-002
  0.32770000000000005          3.2634222533003895E-002
  0.32880000000000004          3.1829759253015538E-002
  0.32990000000000003          3.0866430964580818E-002
  0.33100000000000002          2.9757519340092048E-002
  0.33210000000000001          2.8517360306726844E-002
  0.33320000000000005          2.7161117294660236E-002
  0.33430000000000004          2.5704553616229173E-002
  0.33540000000000003          2.4163808861193122E-002
  0.33650000000000002          2.2555172912196126E-002
  0.33760000000000001          2.0894871712435932E-002
  0.33870000000000006          1.9198877683359941E-002
  0.33980000000000005          1.7482706995726759E-002
  0.34090000000000004          1.5761259788484014E-002
  0.34200000000000003          1.4048660121482627E-002
  0.34310000000000002          1.2358124922660724E-002
  0.34420000000000001          1.0701847773874121E-002
  0.34530000000000005          9.0909102807536571E-003
  0.34640000000000004          7.5352168623546538E-003
  0.34750000000000003          6.0434458368502130E-003
  0.34860000000000002          4.6230286160676799E-003
  0.34970000000000001          3.2801437331853121E-003
  0.35080000000000006          2.0197264425263267E-003
  0.35190000000000005          8.4549664878971580E-004
  0.35300000000000004         -2.3999672560039197E-004
  0.35410000000000003         -1.2353165564557456E-003
  0.35520000000000002         -2.1400621757441500E-003
  0.35630000000000001         -2.9547862108421038E-003
  0.35740000000000005         -3.6809036175643119E-003
  0.35850000000000004         -4.3206012726424679E-003
  0.35960000000000003         -4.8767463492575677E-003
  0.36070000000000002         -5.3527946546160733E-003
  0.36180000000000001         -5.7526938594629554E-003
  0.36290000000000006         -6.0807881621863149E-003
  0.36400000000000005         -6.3417202540243054E-003
  0.36510000000000004         -6.5403403802892137E-003
  0.36620000000000003         -6.6816234042025822E-003
  0.36730000000000002         -6.7705961151455834E-003
  0.36840000000000006         -6.8122732784247067E-003
  0.36950000000000005         -6.8116014494350383E-003
  0.37060000000000004         -6.7734049825498152E-003
  0.37170000000000003         -6.7023387506864353E-003
  0.37280000000000002         -6.6028411516549064E-003
  0.37390000000000001         -6.4791031855658864E-003
  0.37500000000000006         -6.3350427129200571E-003
  0.37610000000000005         -6.1742921140066128E-003
  0.37720000000000004         -6.0001903562014597E-003
  0.37830000000000003         -5.8157838304009092E-003
  0.37940000000000002         -5.6238258272833450E-003
  0.38050000000000006         -5.4267797933703439E-003
  0.38160000000000005         -5.2268260367100512E-003
  0.38270000000000004         -5.0258686270935344E-003
  0.38380000000000003         -4.8255515328201751E-003
  0.38490000000000002         -4.6272773427837501E-003
  0.38600000000000001         -4.4322261533553918E-003
  0.38710000000000000         -4.2413790084190380E-003
  0.38819999999999999         -4.0555359659077660E-003
  0.38930000000000009         -3.8753361195742637E-003
  0.39040000000000008         -3.7012729709779606E-003
  0.39150000000000007         -3.5337109297580386E-003
  0.39260000000000006         -3.3729020625985306E-003
  0.39370000000000005         -3.2190021772966751E-003
  0.39480000000000004         -3.0720876012272427E-003
  0.39590000000000003         -2.9321684202592898E-003
  0.39700000000000002         -2.7991998210324881E-003
  0.39810000000000001         -2.6730909950932530E-003
  0.39920000000000000         -2.5537109108834319E-003
  0.40029999999999999         -2.4408937214783592E-003
  0.40140000000000009         -2.3344456969608949E-003
  0.40250000000000008         -2.2341517234797776E-003
  0.40360000000000007         -2.1397809052858372E-003
  0.40470000000000006         -2.0510906325378543E-003
  0.40580000000000005         -1.9678287947317010E-003
  0.40690000000000004         -1.8897345473341985E-003
  0.40800000000000003         -1.8165372749603323E-003
  0.40910000000000002         -1.7479580990997288E-003
  0.41020000000000001         -1.6837119748602030E-003
  0.41130000000000000         -1.6235125739030138E-003
  0.41239999999999999         -1.5670760819027321E-003
  0.41350000000000009         -1.5141238331973579E-003
  0.41460000000000008         -1.4643836843519639E-003
  0.41570000000000007         -1.4175901481341387E-003
  0.41680000000000006         -1.3734843533927184E-003
  0.41790000000000005         -1.3318156699202739E-003
  0.41900000000000004         -1.2923446003555708E-003
  0.42010000000000003         -1.2548467079623806E-003
  0.42120000000000002         -1.2191173826843235E-003
  0.42230000000000001         -1.1849744862356603E-003
  0.42340000000000000         -1.1522604076548183E-003
  0.42449999999999999         -1.1208419342105997E-003
  0.42560000000000009         -1.0906099271515231E-003
  0.42670000000000008         -1.0614778162289511E-003
  0.42780000000000007         -1.0333811039173807E-003
  0.42890000000000006         -1.0062760304876506E-003
  0.43000000000000005         -9.8013911698087582E-004
  0.43110000000000004         -9.5496635217233970E-004
  0.43220000000000003         -9.3077296237350973E-004
  0.43330000000000002         -9.0759255345031513E-004
  0.43440000000000001         -8.8547589525453840E-004
  0.43550000000000000         -8.6448927270309597E-004
  0.43659999999999999         -8.4471307983958240E-004
  0.43770000000000009         -8.2624079717004992E-004
  0.43880000000000008         -8.0917959176285458E-004
  0.43990000000000007         -7.9365121882557228E-004
  0.44100000000000006         -7.7979454992432406E-004
  0.44210000000000005         -7.6776735419227320E-004
  0.44320000000000004         -7.5774845450832500E-004
  0.44430000000000003         -7.4993962306599282E-004
  0.44540000000000002         -7.4456934118662501E-004
  0.44650000000000001         -7.4189870042223275E-004
  0.44760000000000000         -7.4222967595579195E-004
  0.44869999999999999         -7.4591529648875899E-004
  0.44980000000000009         -7.5336960426251832E-004
  0.45090000000000008         -7.6507695155088719E-004
  0.45200000000000007         -7.8159973764208978E-004
  0.45310000000000006         -8.0358693457703860E-004
  0.45420000000000005         -8.3178334457818738E-004
  0.45530000000000004         -8.6704084865211768E-004
  0.45640000000000003         -9.1033052929027415E-004
  0.45750000000000002         -9.6275526456427113E-004
  0.45860000000000001         -1.0255598063350735E-003
  0.45970000000000000         -1.1001387356872980E-003
  0.46079999999999999         -1.1880423118570860E-003
  0.46190000000000009         -1.2909818444136233E-003
  0.46300000000000008         -1.4108348064984966E-003
  0.46410000000000007         -1.5496512141569862E-003
  0.46520000000000006         -1.7096583840774393E-003
  0.46630000000000005         -1.8932634897755383E-003
  0.46740000000000004         -2.1030512447130939E-003
  0.46850000000000003         -2.3417759163646230E-003
  0.46960000000000002         -2.6123489554966449E-003
  0.47070000000000001         -2.9178234340778765E-003
  0.47180000000000000         -3.2613768427503156E-003
  0.47289999999999999         -3.6462877836842145E-003
  0.47400000000000009         -4.0759090616656231E-003
  0.47510000000000008         -4.5536365365243603E-003
  0.47620000000000007         -5.0828672305307104E-003
  0.47730000000000006         -5.6669518195029307E-003
  0.47840000000000005         -6.3091389635690290E-003