 -0.12000000000000000          0.0000000000000000     
 -0.11889999999999999          0.0000000000000000     
 -0.11780000000000000          0.0000000000000000     
 -0.11670000000000000          0.0000000000000000     
 -0.11559999999999999          0.0000000000000000     
 -0.11449999999999999          0.0000000000000000     
 -0.11340000000000000          0.0000000000000000     
 -0.11230000000000000          0.0000000000000000     
 -0.11119999999999999          0.0000000000000000     
 -0.11009999999999999          0.0000000000000000     
 -0.10900000000000000          0.0000000000000000     
 -0.10790000000000000          0.0000000000000000     
 -0.10679999999999999          0.0000000000000000     
 -0.10569999999999999          0.0000000000000000     
 -0.10460000000000000          0.0000000000000000     
 -0.10349999999999999          0.0000000000000000     
 -0.10239999999999999          0.0000000000000000     
 -0.10130000000000000          0.0000000000000000     
 -0.10020000000000000          0.0000000000000000     
  -9.9099999999999994E-002     0.0000000000000000     
  -9.7999999999999990E-002     0.0000000000000000     
  -9.6899999999999986E-002     0.0000000000000000     
  -9.5799999999999996E-002     0.0000000000000000     
  -9.4699999999999993E-002     0.0000000000000000     
  -9.3599999999999989E-002     0.0000000000000000     
  -9.2499999999999999E-002     0.0000000000000000     
  -9.1399999999999995E-002     0.0000000000000000     
  -9.0299999999999991E-002     0.0000000000000000     
  -8.9200000000000002E-002     0.0000000000000000     
  -8.8099999999999984E-002     0.0000000000000000     
  -8.6999999999999994E-002     0.0000000000000000     
  -8.5899999999999990E-002     0.0000000000000000     
  -8.4799999999999986E-002     0.0000000000000000     
  -8.3699999999999997E-002     0.0000000000000000     
  -8.2599999999999993E-002     0.0000000000000000     
  -8.1499999999999989E-002     0.0000000000000000     
  -8.0399999999999999E-002     0.0000000000000000     
  -7.9299999999999995E-002     0.0000000000000000     
  -7.8199999999999992E-002     0.0000000000000000     
  -7.7100000000000002E-002     0.0000000000000000     
  -7.5999999999999984E-002     0.0000000000000000     
  -7.4899999999999994E-002     0.0000000000000000     
  -7.3799999999999991E-002     0.0000000000000000     
  -7.2699999999999987E-002     0.0000000000000000     
  -7.1599999999999997E-002     0.0000000000000000     
  -7.0499999999999993E-002     0.0000000000000000     
  -6.9399999999999989E-002     0.0000000000000000     
  -6.8300000000000000E-002     0.0000000000000000     
  -6.7199999999999996E-002     0.0000000000000000     
  -6.6099999999999992E-002     0.0000000000000000     
  -6.5000000000000002E-002     0.0000000000000000     
  -6.3899999999999985E-002     0.0000000000000000     
  -6.2799999999999995E-002     0.0000000000000000     
  -6.1699999999999991E-002     0.0000000000000000     
  -6.0599999999999994E-002     0.0000000000000000     
  -5.9499999999999990E-002     0.0000000000000000     
  -5.8399999999999994E-002     0.0000000000000000     
  -5.7299999999999990E-002     0.0000000000000000     
  -5.6199999999999986E-002    -4.5169616799676384E-051
  -5.5099999999999996E-002    -1.7256434667826404E-050
  -5.3999999999999992E-002     7.6084670468795504E-047
  -5.2899999999999989E-002     1.5216306504950433E-046
  -5.1799999999999985E-002     6.0945306459722948E-046
  -5.0699999999999995E-002     1.0674099208378137E-045
  -4.9599999999999991E-002     9.1570226930628448E-047
  -4.8499999999999988E-002    -4.0702883335157699E-045
  -4.7399999999999998E-002    -1.4633087036212209E-044
  -4.6299999999999994E-002    -2.6690125938453575E-044
  -4.5199999999999990E-002    -2.2565310025840840E-044
  -4.4099999999999986E-002     4.2592883870200034E-044
  -4.2999999999999997E-002     2.2461099734815358E-043
  -4.1899999999999993E-002     5.1958715914988395E-043
  -4.0799999999999989E-002     7.1332941874442588E-043
  -3.9699999999999985E-002     1.9993459480682913E-043
  -3.8599999999999995E-002    -1.9868933079115428E-042
  -3.7499999999999992E-002    -6.4617887385201525E-042
  -3.6399999999999988E-002    -1.1636111077913997E-041
  -3.5299999999999984E-002    -1.1001838116861054E-041
  -3.4199999999999994E-002     8.1195414607658937E-042
  -3.3099999999999991E-002     5.9245982485060212E-041
  -3.1999999999999987E-002     1.3843048112093492E-040
  -3.0899999999999997E-002     1.9228289691370285E-040
  -2.9799999999999993E-002     8.9886520348718467E-041
  -2.8699999999999989E-002    -3.5380611363752202E-040
  -2.7599999999999986E-002    -1.2328457750048262E-039
  -2.6499999999999996E-002    -2.2429609889759171E-039
  -2.5399999999999992E-002    -2.3119263398674878E-039
  -2.4299999999999988E-002     4.6465953514826639E-040
  -2.3199999999999985E-002     7.9379896956671934E-039
  -2.2099999999999995E-002     1.9480551478591526E-038
  -2.0999999999999991E-002     2.8317675180448847E-038
  -1.9899999999999987E-002     1.8953612306810594E-038
  -1.8799999999999983E-002    -2.9340302747751061E-038
  -1.7699999999999994E-002    -1.2697608540705521E-037
  -1.6599999999999990E-002    -2.4479699748087087E-037
  -1.5499999999999986E-002    -2.8268107784149832E-037
  -1.4399999999999996E-002    -6.8204473750046345E-038
  -1.3299999999999992E-002     5.6629554652509744E-037
  -1.2199999999999989E-002     1.5930446515926338E-036
  -1.1099999999999985E-002     2.5205196930107982E-036
  -9.9999999999999950E-003     2.2199313705953202E-036
  -8.8999999999999913E-003    -8.3196436651761845E-037
  -7.7999999999999875E-003    -7.5499616621386843E-036
  -6.6999999999999837E-003    -1.6437059792346999E-035
  -5.5999999999999939E-003    -2.1701113487234077E-035
  -4.4999999999999901E-003    -1.3071204556596488E-035
  -3.3999999999999864E-003     2.0216664048342203E-035
  -2.2999999999999826E-003     7.9638022588482866E-035
  -1.1999999999999927E-003     1.4369105830804281E-034
  -9.9999999999988987E-005     1.5834909668877259E-034
   1.0000000000000148E-003     4.5909648559111476E-035
   2.1000000000000185E-003    -2.5305731586518827E-034
   3.2000000000000084E-003    -7.0264189826819126E-034
   4.3000000000000121E-003    -1.0871086526158956E-033
   5.4000000000000159E-003    -9.8629571431564440E-034
   6.5000000000000058E-003     9.6667999124402470E-035
   7.6000000000000234E-003     2.3911846955657221E-033
   8.7000000000000133E-003     5.3511342197050759E-033
   9.8000000000000032E-003     7.2365903346063013E-033
   1.0900000000000021E-002     5.2424395589616595E-033
   1.2000000000000011E-002    -3.3347932505448717E-033
   1.3100000000000001E-002    -1.8744704386201406E-032
   1.4200000000000018E-002    -3.5928253646329235E-032
   1.5300000000000008E-002    -4.2972064909959713E-032
   1.6400000000000026E-002    -2.3486137840130346E-032
   1.7500000000000016E-002     3.4986487418883298E-032
   1.8600000000000005E-002     1.2712525312882660E-031
   1.9700000000000023E-002     2.1604817307243391E-031
   2.0800000000000013E-002     2.3041381467752697E-031
   2.1900000000000003E-002     8.5223933855255498E-032
   2.3000000000000020E-002    -2.6690336888570827E-031
   2.4100000000000010E-002    -7.6411204071886007E-031
   2.5200000000000000E-002    -1.1782465765010963E-030
   2.6300000000000018E-002    -1.1283285334178868E-030
   2.7400000000000008E-002    -2.1876014780251471E-031
   2.8500000000000025E-002     1.6870444361202301E-030
   2.9600000000000015E-002     4.1363471585328399E-030
   3.0700000000000005E-002     5.8883663824890302E-030
   3.1800000000000023E-002     5.1026594811913979E-030
   3.2900000000000013E-002     1.1124523432070810E-031
   3.4000000000000002E-002    -9.2762346600084903E-030
   3.5100000000000020E-002    -2.0399987544674623E-029
   3.6200000000000010E-002    -2.7202474120040625E-029
   3.7300000000000028E-002    -2.1548872149800816E-029
   3.8400000000000017E-002     2.9875685662714447E-030
   3.9500000000000007E-002     4.5479688978306656E-029
   4.0600000000000025E-002     9.2463780064854487E-029
   4.1700000000000015E-002     1.1701373591449483E-028
   4.2800000000000005E-002     8.5916423075093074E-029
   4.3900000000000022E-002    -2.3657781446943405E-029
   4.5000000000000012E-002    -2.0175565474887967E-028
   4.6100000000000002E-002    -3.8772564825612339E-028
   4.7200000000000020E-002    -4.7145956909912041E-028
   4.8300000000000010E-002    -3.2667043227253087E-028
   4.9400000000000027E-002     1.2215455475208403E-028
   5.0500000000000017E-002     8.1749748185097940E-028
   5.1600000000000007E-002     1.5117147072692033E-027
   5.2700000000000025E-002     1.7872928292951372E-027
   5.3800000000000014E-002     1.1938739473890928E-027
   5.4900000000000004E-002    -5.0386874674797025E-028
   5.6000000000000022E-002    -3.0444475935721273E-027
   5.7100000000000012E-002    -5.5005753966741783E-027
   5.8200000000000002E-002    -6.3951658071072171E-027
   5.9300000000000019E-002    -4.2129506793996102E-027
   6.0400000000000009E-002     1.7466816648121630E-027
   6.1500000000000027E-002     1.0463142371588380E-026
   6.2600000000000017E-002     1.8726265853093848E-026
   6.3700000000000007E-002     2.1636923807374325E-026
   6.4800000000000024E-002     1.4362162589787047E-026
   6.5900000000000014E-002    -5.1205551400833594E-027
   6.7000000000000004E-002    -3.3268595944927375E-026
   6.8100000000000022E-002    -5.9746282182749831E-026
   6.9200000000000012E-002    -6.9262971547325610E-026
   7.0300000000000029E-002    -4.7155620951788907E-026
   7.1400000000000019E-002     1.2310631573682350E-026
   7.2500000000000009E-002     9.7997931525960927E-026
   7.3600000000000027E-002     1.7881588341063555E-025
   7.4700000000000016E-002     2.0972709789097411E-025
   7.5800000000000006E-002     1.4832277741089230E-025
   7.6900000000000024E-002    -2.1478533104005511E-026
   7.8000000000000014E-002    -2.6760467242848065E-025
   7.9100000000000004E-002    -5.0234895525194222E-025
   8.0200000000000021E-002    -6.0023665672638224E-025
   8.1300000000000011E-002    -4.4422217966430035E-025
   8.2400000000000029E-002     1.0218905378846488E-026
   8.3500000000000019E-002     6.7780487510820962E-025
   8.4600000000000009E-002     1.3256700095178889E-024
   8.5700000000000026E-002     1.6224717082315807E-024
   8.6800000000000016E-002     1.2598477556615198E-024
   8.7900000000000006E-002     1.1713467054124716E-025
   8.9000000000000024E-002    -1.5946902643979984E-024
   9.0100000000000013E-002    -3.2914446076147730E-024
   9.1200000000000003E-002    -4.1418349554889038E-024
   9.2300000000000021E-002    -3.3701639787669312E-024
   9.3400000000000011E-002    -6.5997401249633256E-025
   9.4500000000000028E-002     3.4990192961348555E-024
   9.5600000000000018E-002     7.7153166326497893E-024
   9.6700000000000008E-002     1.0001089343397742E-023
   9.7800000000000026E-002     8.4911654687293438E-024
   9.8900000000000016E-002     2.3898473714900929E-024
  0.10000000000000001         -7.2250202721438449E-024
  0.10110000000000002         -1.7186391702437566E-023
  0.10220000000000001         -2.2942496724282675E-023
  0.10330000000000003         -2.0193973958532132E-023
  0.10440000000000002         -7.0301558932808761E-024
  0.10550000000000001          1.4272058836280770E-023
  0.10660000000000003          3.6771613587307961E-023
  0.10770000000000002          5.0422635868641960E-023
  0.10880000000000001          4.5670638030423718E-023
  0.10990000000000003          1.8116365375198206E-023
  0.11100000000000002         -2.7576052377986759E-023
  0.11210000000000001         -7.6639341592094415E-023
  0.11320000000000002         -1.0753256967283276E-022
  0.11430000000000001         -9.9605838200659920E-023
  0.11540000000000003         -4.3016405571760294E-023
  0.11650000000000002          5.2959915053904149E-023
  0.11760000000000001          1.5764487178130094E-022
  0.11870000000000003          2.2581424680704386E-022
  0.11980000000000002          2.1360666446046629E-022
  0.12090000000000001          9.9171376663337308E-023
  0.12200000000000003         -9.9879602934564784E-023
  0.12310000000000001         -3.2129452247827485E-022
  0.12420000000000003         -4.7169557794373674E-022
  0.12530000000000002         -4.5873119522869371E-022
  0.12640000000000001         -2.3329677914959505E-022
  0.12750000000000003          1.7406965947429463E-022
  0.12860000000000002          6.4092706426601963E-022
  0.12970000000000001          9.7800877974822193E-022
  0.13080000000000003          9.9219047346728877E-022
  0.13190000000000002          5.7110888431044166E-022
  0.13300000000000001         -2.4146874530680408E-022
  0.13410000000000000         -1.2157516968469910E-021
  0.13520000000000004         -1.9785813339815282E-021
  0.13630000000000003         -2.1318579569572576E-021
  0.13740000000000002         -1.4176672917930542E-021
  0.13850000000000001          1.2791112155134194E-022
  0.13960000000000000          2.1022862670677156E-021
  0.14070000000000005          3.7999962707302268E-021
  0.14180000000000004          4.4242126650859165E-021
  0.14290000000000003          3.3975199526528259E-021
  0.14400000000000002          6.6736085951455829E-022
  0.14510000000000001         -3.1249239656844690E-021
  0.14620000000000000         -6.7200893617727884E-021
  0.14730000000000004         -8.5959366154167156E-021
  0.14840000000000003         -7.5263172580224976E-021
  0.14950000000000002         -3.1638314727075576E-021
  0.15060000000000001          3.5905583694514964E-021
  0.15170000000000000          1.0638842270682546E-020
  0.15280000000000005          1.5242490560270169E-020
  0.15390000000000004          1.4978915994008708E-020
  0.15500000000000003          8.8005147929485372E-021
  0.15610000000000002         -2.2155552133107733E-021
  0.15720000000000001         -1.4808958291977961E-020
  0.15830000000000000         -2.4355275963967916E-020
  0.15940000000000004         -2.6429250093580548E-020
  0.16050000000000003         -1.8640152196832945E-020
  0.16160000000000002         -2.0464364874892674E-021
  0.16270000000000001          1.8527100845780451E-020
  0.16380000000000000          3.5645778277812699E-020
  0.16490000000000005          4.1746154601238507E-020
  0.16600000000000004          3.2211113902763688E-020
  0.16710000000000003          7.8985958851847916E-021
  0.16820000000000002         -2.4044660913311520E-020
  0.16930000000000001         -5.1802939652296428E-020
  0.17040000000000000         -6.2814290506311621E-020
  0.17150000000000004         -4.8880217810403493E-020
  0.17260000000000003         -1.0601925649212316E-020
  0.17370000000000002          4.0858761863081391E-020
  0.17480000000000001          8.6041782198182120E-020
  0.17590000000000000          1.0346483247138746E-019
  0.17700000000000005          7.8242760446783758E-020
  0.17810000000000004          1.0029535104876847E-020
  0.17920000000000003         -8.3158315470055244E-020
  0.18030000000000002         -1.6779082653298226E-019
  0.18140000000000001         -2.0477679728594487E-019
  0.18250000000000000         -1.6417342568207572E-019
  0.18360000000000004         -3.9851624697562590E-020
  0.18470000000000003          1.4177137551798459E-019
  0.18580000000000002          3.2381104712898840E-019
  0.18690000000000001          4.3353172811656881E-019
  0.18800000000000000          4.0671290618596632E-019
  0.18910000000000005          2.1458453610734197E-019
  0.19020000000000004         -1.1639917683181396E-019
  0.19130000000000003         -5.0103061646021973E-019
  0.19240000000000002         -8.1291827040426554E-019
  0.19350000000000001         -9.2111118961554611E-019
  0.19460000000000005         -7.3626344400098945E-019
  0.19570000000000004         -2.5147497534955276E-019
  0.19680000000000003          4.3791346176756797E-019
  0.19790000000000002          1.1465566778422117E-018
  0.19900000000000001          1.6448247084521808E-018
  0.20010000000000000          1.7278310168553283E-018
  0.20120000000000005          1.2877630499933648E-018
  0.20230000000000004          3.6530851226212544E-019
  0.20340000000000003         -8.4028959079211374E-019
  0.20450000000000002         -2.0115689503410017E-018
  0.20560000000000000         -2.7965327372839708E-018
  0.20670000000000005         -2.9131157768596645E-018
  0.20780000000000004         -2.2424433193890370E-018
  0.20890000000000003         -8.7961958976937450E-019
  0.21000000000000002          8.7762136818370870E-019
  0.21110000000000001          2.6026673153728722E-018
  0.21220000000000000          3.8555602187301934E-018
  0.21330000000000005          4.3046870473487397E-018
  0.21440000000000003          3.8158127145268284E-018
  0.21550000000000002          2.4801904494306573E-018
  0.21660000000000001          5.7475472055979090E-019
  0.21770000000000000         -1.5280834040761632E-018
  0.21880000000000005         -3.4650761147158011E-018
  0.21990000000000004         -4.9606488353600217E-018
  0.22100000000000003         -5.8508800371135659E-018
  0.22210000000000002         -6.0497920246443752E-018
  0.22320000000000001         -5.4836035078436421E-018
  0.22430000000000000         -4.0386110798485881E-018
  0.22540000000000004         -1.5692547615314820E-018
  0.22650000000000003          2.0092376317179680E-018
  0.22760000000000002          6.5590893631961645E-018
  0.22870000000000001          1.1548320839869480E-017
  0.22980000000000000          1.5957739595665588E-017
  0.23090000000000005          1.8353822290367583E-017
  0.23200000000000004          1.7175481058937941E-017
  0.23310000000000003          1.1211647862273677E-017
  0.23420000000000002          1.6335218888495276E-019
  0.23530000000000001         -1.4882890267520438E-017
  0.23640000000000000         -3.1265938680894902E-017
  0.23750000000000004         -4.5000258038928521E-017
  0.23860000000000003         -5.1517749671628965E-017
  0.23970000000000002         -4.6809305427722810E-017
  0.24080000000000001         -2.8727415727515529E-017
  0.24190000000000000          1.8929520654561675E-018
  0.24300000000000005          4.0660134006892799E-017
  0.24410000000000004          7.9883640896786052E-017
  0.24520000000000003          1.0977570980475746E-016
  0.24630000000000002          1.2047495881510931E-016
  0.24740000000000001          1.0453259633542155E-016
  0.24850000000000005          5.9320718898909380E-017
  0.24960000000000004         -1.1250340747271010E-017
  0.25070000000000003         -9.6253143227540294E-017
  0.25180000000000002         -1.7884720905762240E-016
  0.25290000000000001         -2.3900050406063188E-016
  0.25400000000000000         -2.5750210856946909E-016
  0.25510000000000005         -2.2059567121694645E-016
  0.25620000000000004         -1.2430840998707556E-016
  0.25730000000000003          2.2552353618627307E-017
  0.25840000000000002          1.9767048502374188E-016
  0.25950000000000001          3.6738870606253182E-016
  0.26060000000000005          4.9189873737204370E-016
  0.26170000000000004          5.3294072514690977E-016
  0.26280000000000003          4.6282561894209726E-016
  0.26390000000000002          2.7302680701585669E-016
  0.26500000000000001         -1.9717339437325917E-017
  0.26610000000000000         -3.7174842572501688E-016
  0.26720000000000005         -7.1665137175675800E-016
  0.26830000000000004         -9.7554761770795683E-016
  0.26940000000000003         -1.0724450313535619E-015
  0.27050000000000002         -9.5212805622564343E-016
  0.27160000000000001         -5.9692508942660444E-016
  0.27270000000000005         -3.8199220160272921E-017
  0.27380000000000004          6.4115970219434165E-016
  0.27490000000000003          1.3155333615520149E-015
  0.27600000000000002          1.8366941233570606E-015
  0.27710000000000001          2.0626141317013026E-015
  0.27820000000000000          1.8898591823465311E-015
  0.27930000000000005          1.2828301224812785E-015
  0.28040000000000004          2.9282806650818098E-016
  0.28150000000000003         -9.3877205218426266E-016
  0.28260000000000002         -2.1961824948622728E-015
  0.28370000000000001         -3.2228958074435739E-015
  0.28480000000000005         -3.7686632022488573E-015
  0.28590000000000004         -3.6416953043348302E-015
  0.28700000000000003         -2.7561218794590599E-015
  0.28810000000000002         -1.1646813395946148E-015
  0.28920000000000001          9.3149265974727144E-016
  0.29030000000000000          3.2005734800057327E-015
  0.29140000000000005          5.2251997219494337E-015
  0.29250000000000004          6.5700908986928907E-015
  0.29360000000000003          6.8625931841258723E-015
  0.29470000000000002          5.8731914830796822E-015
  0.29580000000000001          3.5813161095109696E-015
  0.29690000000000005          2.1218831928201303E-016
  0.29800000000000004         -3.7667052102700154E-015
  0.29910000000000003         -7.6955556157697586E-015
  0.30020000000000002         -1.0817115027631368E-014
  0.30130000000000001         -1.2406129030239257E-014
  0.30240000000000000         -1.1914087834671223E-014
  0.30350000000000005         -9.1031819578029011E-015
  0.30460000000000004         -4.1405318121229579E-015
  0.30570000000000003          2.3732512295668257E-015
  0.30680000000000002          9.4575548849973722E-015
  0.30790000000000001          1.5888518649031530E-014
  0.30900000000000005          2.0401973613375024E-014
  0.31010000000000004          2.1928347763155496E-014
  0.31120000000000003          1.9813902432513070E-014
  0.31230000000000002          1.3980941469899862E-014
  0.31340000000000001          4.9894979680938232E-015
  0.31450000000000006         -6.0170180490467370E-015
  0.31560000000000005         -1.7473995889442325E-014
  0.31670000000000004         -2.7632890375366911E-014
  0.31780000000000003         -3.4824615854541343E-014
  0.31890000000000002         -3.7697617108281812E-014
  0.32000000000000001         -3.5391376028226560E-014
  0.32110000000000005         -2.7629363168274301E-014
  0.32220000000000004         -1.4741447603406996E-014
  0.32330000000000003          2.3552556861954275E-015
  0.32440000000000002          2.2184998573943652E-014
  0.32550000000000001          4.2734713853388486E-014
  0.32660000000000006          6.1481382396154055E-014
  0.32770000000000005          7.5471885142653631E-014
  0.32880000000000004          8.1522031483378391E-014
  0.32990000000000003          7.6595029198852298E-014
  0.33100000000000002          5.8378395865954241E-014
  0.33210000000000001          2.6007486714246635E-014
  0.33320000000000005         -1.9199332254577622E-014
  0.33430000000000004         -7.3196999997424038E-014
  0.33540000000000003         -1.2908836945121604E-013
  0.33650000000000002         -1.7760207041345847E-013
  0.33760000000000001         -2.0824742439892818E-013
  0.33870000000000006         -2.1105750195188450E-013
  0.33980000000000005         -1.7865712256075037E-013
  0.34090000000000004         -1.0825660455044216E-013
  0.34200000000000003         -3.1202860362497134E-015
  0.34310000000000002          1.2688011083859348E-013
  0.34420000000000001          2.6584820010567555E-013
  0.34530000000000005          3.9356499244214743E-013
  0.34640000000000004          4.8805093666893083E-013
  0.34750000000000003          5.2855282711652418E-013
  0.34860000000000002          4.9846799351266747E-013
  0.34970000000000001          3.8780442092279279E-013
  0.35080000000000006          1.9496859252931474E-013
  0.35190000000000005         -7.2101671710048474E-014
  0.35300000000000004         -3.9528561183510160E-013
  0.35410000000000003         -7.4592903807962913E-013
  0.35520000000000002         -1.0847989141842312E-012
  0.35630000000000001         -1.3626823416208807E-012
  0.35740000000000005         -1.5223423294351816E-012
  0.35850000000000004         -1.5027838458691174E-012
  0.35960000000000003         -1.2467155063841450E-012
  0.36070000000000002         -7.1159539126155424E-013
  0.36180000000000001          1.1629257246638312E-013
  0.36290000000000006          1.2065363877275689E-012
  0.36400000000000005          2.4711680167453154E-012
  0.36510000000000004          3.7571797736652050E-012
  0.36620000000000003          4.8493253576575757E-012
  0.36730000000000002          5.4868274030880535E-012
  0.36840000000000006          5.3957781745321668E-012
  0.36950000000000005          4.3362160316502207E-012
  0.37060000000000004          2.1594079767831240E-012
  0.37170000000000003         -1.1326100002563427E-012
  0.37280000000000002         -5.3360393088567254E-012
  0.37390000000000001         -1.0015214351285933E-011
  0.37500000000000006         -1.4505366584674360E-011
  0.37610000000000005         -1.7957639526266209E-011
  0.37720000000000004         -1.9430848707347021E-011
  0.37830000000000003         -1.8027629241987212E-011
  0.37940000000000002         -1.3064295299614530E-011
  0.38050000000000006         -4.2551393400958018E-012
  0.38160000000000005          8.1159755155885354E-012
  0.38270000000000004          2.3069403639621126E-011
  0.38380000000000003          3.8883389333257321E-011
  0.38490000000000002          5.3158720451896347E-011
  0.38600000000000001          6.3016060617180968E-011
  0.38710000000000000          6.5431933499111771E-011
  0.38819999999999999          5.7697914105748543E-011
  0.38930000000000009          3.7962665619700519E-011
  0.39040000000000008          5.7911690028454299E-012
  0.39150000000000007         -3.7345920189910706E-011
  0.39260000000000006         -8.7752952419658405E-011
  0.39370000000000005         -1.3945925623593247E-010
  0.39480000000000004         -1.8452129904018023E-010
  0.39590000000000003         -2.1372443893135031E-010
  0.39700000000000002         -2.1768039494350937E-010
  0.39810000000000001         -1.8825256503003694E-010
  0.39920000000000000         -1.2017315976993628E-010
  0.40029999999999999         -1.2652535497398901E-011
  0.40140000000000009          1.2926595297134315E-010
  0.40250000000000008          2.9387371754023159E-010
  0.40360000000000007          4.6274100957204027E-010
  0.40470000000000006          6.1163697387001032E-010
  0.40580000000000005          7.1253224580712209E-010
  0.40690000000000004          7.3665977444746646E-010
  0.40800000000000003          6.5845797433873403E-010
  0.40910000000000002          4.6005605115260023E-010
  0.41020000000000001          1.3581177937142094E-010
  0.41130000000000000         -3.0370609879154039E-010
  0.41239999999999999         -8.2896314566150611E-010
  0.41350000000000009         -1.3905896037892943E-009
  0.41460000000000008         -1.9209549391643029E-009
  0.41570000000000007         -2.3385522690595924E-009
  0.41680000000000006         -2.5552721288104040E-009
  0.41790000000000005         -2.4862986632367546E-009
  0.41900000000000004         -2.0619696662338951E-009
  0.42010000000000003         -1.2405586447412757E-009
  0.42120000000000002         -2.0611423525049321E-011
  0.42230000000000001          1.5487515826970605E-009
  0.42340000000000000          3.3612177699834952E-009
  0.42449999999999999          5.2518739077976281E-009
  0.42560000000000009          7.0022066018485569E-009
  0.42670000000000008          8.3521815298955209E-009
  0.42780000000000007          9.0194235118005972E-009
  0.42890000000000006          8.7247380135087259E-009
  0.43000000000000005          7.2224746665182344E-009
  0.43110000000000004          4.3335662442052946E-009
  0.43220000000000003         -2.1399054935117170E-011
  0.43330000000000002         -5.7919136738826792E-009
  0.43440000000000001         -1.2772821660460839E-008
  0.43550000000000000         -2.0587374957174671E-008
  0.43659999999999999         -2.8679477701312699E-008
  0.43770000000000009         -3.6315487509631413E-008
  0.43880000000000008         -4.2594532089638838E-008
  0.43990000000000007         -4.6465015141568826E-008
  0.44100000000000006         -4.6743502848832924E-008
  0.44210000000000005         -4.2131143862454338E-008
  0.44320000000000004         -3.1221773157024910E-008
  0.44430000000000003         -1.2495421983018375E-008
  0.44540000000000002          1.5709154623965816E-008
  0.44650000000000001          5.5248943540372370E-008
  0.44760000000000000          1.0826326343951872E-007
  0.44869999999999999          1.7729679310153537E-007
  0.44980000000000009          2.6546170065517180E-007
  0.45090000000000008          3.7664118398741396E-007
  0.45200000000000007          5.1573464771018641E-007
  0.45310000000000006          6.8894548707507245E-007
  0.45420000000000005          9.0411167755905557E-007
  0.45530000000000004          1.1710803270145116E-006
  0.45640000000000003          1.5021282482027182E-006
  0.45750000000000002          1.9124342267554458E-006
  0.45860000000000001          2.4206076041043335E-006
  0.45970000000000000          3.0492870766578667E-006
  0.46079999999999999          3.8258196219168706E-006
  0.46190000000000009          4.7830331975323956E-006
  0.46300000000000008          5.9601247875317793E-006
  0.46410000000000007          7.4036828638409853E-006
  0.46520000000000006          9.1688560943914569E-006
  0.46630000000000005          1.1320706338912591E-005
  0.46740000000000004          1.3935737207775583E-005
  0.46850000000000003          1.7103639097654005E-005
  0.46960000000000002          2.0929249639728230E-005
  0.47070000000000001          2.5534742284019085E-005
  0.47180000000000000          3.1062040894301226E-005
  0.47289999999999999          3.7675458131128602E-005
  0.47400000000000009          4.5564571281051022E-005
  0.47510000000000008          5.4947277424812250E-005
  0.47620000000000007          6.6073039956643045E-005
  0.47730000000000006          7.9226322996863173E-005
  0.47840000000000005          9.4730080091447196E-005