 -0.12000000000000000          0.0000000000000000     
 -0.11889999999999999          0.0000000000000000     
 -0.11780000000000000          0.0000000000000000     
 -0.11670000000000000          0.0000000000000000     
 -0.11559999999999999          0.0000000000000000     
 -0.11449999999999999          0.0000000000000000     
 -0.11340000000000000          0.0000000000000000     
 -0.11230000000000000          0.0000000000000000     
 -0.11119999999999999          0.0000000000000000     
 -0.11009999999999999          0.0000000000000000     
 -0.10900000000000000          0.0000000000000000     
 -0.10790000000000000          0.0000000000000000     
 -0.10679999999999999          0.0000000000000000     
 -0.10569999999999999          0.0000000000000000     
 -0.10460000000000000          0.0000000000000000     
 -0.10349999999999999          0.0000000000000000     
 -0.10239999999999999          0.0000000000000000     
 -0.10130000000000000          0.0000000000000000     
 -0.10020000000000000          0.0000000000000000     
  -9.9099999999999994E-002     0.0000000000000000     
  -9.7999999999999990E-002     0.0000000000000000     
  -9.6899999999999986E-002     0.0000000000000000     
  -9.5799999999999996E-002     0.0000000000000000     
  -9.4699999999999993E-002     0.0000000000000000     
  -9.3599999999999989E-002     0.0000000000000000     
  -9.2499999999999999E-002     0.0000000000000000     
  -9.1399999999999995E-002     0.0000000000000000     
  -9.0299999999999991E-002     0.0000000000000000     
  -8.9200000000000002E-002     0.0000000000000000     
  -8.8099999999999984E-002     0.0000000000000000     
  -8.6999999999999994E-002     0.0000000000000000     
  -8.5899999999999990E-002     0.0000000000000000     
  -8.4799999999999986E-002     0.0000000000000000     
  -8.3699999999999997E-002     0.0000000000000000     
  -8.2599999999999993E-002     0.0000000000000000     
  -8.1499999999999989E-002     0.0000000000000000     
  -8.0399999999999999E-002     0.0000000000000000     
  -7.9299999999999995E-002     0.0000000000000000     
  -7.8199999999999992E-002     0.0000000000000000     
  -7.7100000000000002E-002     0.0000000000000000     
  -7.5999999999999984E-002     0.0000000000000000     
  -7.4899999999999994E-002     0.0000000000000000     
  -7.3799999999999991E-002     0.0000000000000000     
  -7.2699999999999987E-002     0.0000000000000000     
  -7.1599999999999997E-002     0.0000000000000000     
  -7.0499999999999993E-002     0.0000000000000000     
  -6.9399999999999989E-002     0.0000000000000000     
  -6.8300000000000000E-002     0.0000000000000000     
  -6.7199999999999996E-002     0.0000000000000000     
  -6.6099999999999992E-002     0.0000000000000000     
  -6.5000000000000002E-002     0.0000000000000000     
  -6.3899999999999985E-002     0.0000000000000000     
  -6.2799999999999995E-002     0.0000000000000000     
  -6.1699999999999991E-002     0.0000000000000000     
  -6.0599999999999994E-002     0.0000000000000000     
  -5.9499999999999990E-002     0.0000000000000000     
  -5.8399999999999994E-002     0.0000000000000000     
  -5.7299999999999990E-002     0.0000000000000000     
  -5.6199999999999986E-002     0.0000000000000000     
  -5.5099999999999996E-002     0.0000000000000000     
  -5.3999999999999992E-002     0.0000000000000000     
  -5.2899999999999989E-002     0.0000000000000000     
  -5.1799999999999985E-002     0.0000000000000000     
  -5.0699999999999995E-002     0.0000000000000000     
  -4.9599999999999991E-002     0.0000000000000000     
  -4.8499999999999988E-002     0.0000000000000000     
  -4.7399999999999998E-002     0.0000000000000000     
  -4.6299999999999994E-002     0.0000000000000000     
  -4.5199999999999990E-002     0.0000000000000000     
  -4.4099999999999986E-002     0.0000000000000000     
  -4.2999999999999997E-002     0.0000000000000000     
  -4.1899999999999993E-002     0.0000000000000000     
  -4.0799999999999989E-002     0.0000000000000000     
  -3.9699999999999985E-002     0.0000000000000000     
  -3.8599999999999995E-002     0.0000000000000000     
  -3.7499999999999992E-002     0.0000000000000000     
  -3.6399999999999988E-002     0.0000000000000000     
  -3.5299999999999984E-002     0.0000000000000000     
  -3.4199999999999994E-002     0.0000000000000000     
  -3.3099999999999991E-002     0.0000000000000000     
  -3.1999999999999987E-002     0.0000000000000000     
  -3.0899999999999997E-002     0.0000000000000000     
  -2.9799999999999993E-002     0.0000000000000000     
  -2.8699999999999989E-002     0.0000000000000000     
  -2.7599999999999986E-002     0.0000000000000000     
  -2.6499999999999996E-002     0.0000000000000000     
  -2.5399999999999992E-002     0.0000000000000000     
  -2.4299999999999988E-002     0.0000000000000000     
  -2.3199999999999985E-002     0.0000000000000000     
  -2.2099999999999995E-002     0.0000000000000000     
  -2.0999999999999991E-002     0.0000000000000000     
  -1.9899999999999987E-002     0.0000000000000000     
  -1.8799999999999983E-002     0.0000000000000000     
  -1.7699999999999994E-002     0.0000000000000000     
  -1.6599999999999990E-002     0.0000000000000000     
  -1.5499999999999986E-002     0.0000000000000000     
  -1.4399999999999996E-002     0.0000000000000000     
  -1.3299999999999992E-002     0.0000000000000000     
  -1.2199999999999989E-002     0.0000000000000000     
  -1.1099999999999985E-002     0.0000000000000000     
  -9.9999999999999950E-003     0.0000000000000000     
  -8.8999999999999913E-003     0.0000000000000000     
  -7.7999999999999875E-003     0.0000000000000000     
  -6.6999999999999837E-003     0.0000000000000000     
  -5.5999999999999939E-003     0.0000000000000000     
  -4.4999999999999901E-003     0.0000000000000000     
  -3.3999999999999864E-003     0.0000000000000000     
  -2.2999999999999826E-003     0.0000000000000000     
  -1.1999999999999927E-003     0.0000000000000000     
  -9.9999999999988987E-005     0.0000000000000000     
   1.0000000000000148E-003     0.0000000000000000     
   2.1000000000000185E-003     0.0000000000000000     
   3.2000000000000084E-003     0.0000000000000000     
   4.3000000000000121E-003     0.0000000000000000     
   5.4000000000000159E-003     0.0000000000000000     
   6.5000000000000058E-003     0.0000000000000000     
   7.6000000000000234E-003     0.0000000000000000     
   8.7000000000000133E-003     0.0000000000000000     
   9.8000000000000032E-003     0.0000000000000000     
   1.0900000000000021E-002     0.0000000000000000     
   1.2000000000000011E-002     0.0000000000000000     
   1.3100000000000001E-002     0.0000000000000000     
   1.4200000000000018E-002     0.0000000000000000     
   1.5300000000000008E-002     0.0000000000000000     
   1.6400000000000026E-002     0.0000000000000000     
   1.7500000000000016E-002     0.0000000000000000     
   1.8600000000000005E-002     0.0000000000000000     
   1.9700000000000023E-002     0.0000000000000000     
   2.0800000000000013E-002     0.0000000000000000     
   2.1900000000000003E-002     0.0000000000000000     
   2.3000000000000020E-002     0.0000000000000000     
   2.4100000000000010E-002     0.0000000000000000     
   2.5200000000000000E-002     0.0000000000000000     
   2.6300000000000018E-002     0.0000000000000000     
   2.7400000000000008E-002     0.0000000000000000     
   2.8500000000000025E-002     0.0000000000000000     
   2.9600000000000015E-002     0.0000000000000000     
   3.0700000000000005E-002     0.0000000000000000     
   3.1800000000000023E-002     0.0000000000000000     
   3.2900000000000013E-002     0.0000000000000000     
   3.4000000000000002E-002     0.0000000000000000     
   3.5100000000000020E-002     0.0000000000000000     
   3.6200000000000010E-002     0.0000000000000000     
   3.7300000000000028E-002     0.0000000000000000     
   3.8400000000000017E-002     0.0000000000000000     
   3.9500000000000007E-002     0.0000000000000000     
   4.0600000000000025E-002     0.0000000000000000     
   4.1700000000000015E-002     0.0000000000000000     
   4.2800000000000005E-002     0.0000000000000000     
   4.3900000000000022E-002     0.0000000000000000     
   4.5000000000000012E-002     0.0000000000000000     
   4.6100000000000002E-002     0.0000000000000000     
   4.7200000000000020E-002     0.0000000000000000     
   4.8300000000000010E-002     0.0000000000000000     
   4.9400000000000027E-002     0.0000000000000000     
   5.0500000000000017E-002     0.0000000000000000     
   5.1600000000000007E-002     0.0000000000000000     
   5.2700000000000025E-002     0.0000000000000000     
   5.3800000000000014E-002     0.0000000000000000     
   5.4900000000000004E-002     0.0000000000000000     
   5.6000000000000022E-002     0.0000000000000000     
   5.7100000000000012E-002     0.0000000000000000     
   5.8200000000000002E-002     0.0000000000000000     
   5.9300000000000019E-002     0.0000000000000000     
   6.0400000000000009E-002     0.0000000000000000     
   6.1500000000000027E-002     0.0000000000000000     
   6.2600000000000017E-002     0.0000000000000000     
   6.3700000000000007E-002     0.0000000000000000     
   6.4800000000000024E-002     0.0000000000000000     
   6.5900000000000014E-002     0.0000000000000000     
   6.7000000000000004E-002     0.0000000000000000     
   6.8100000000000022E-002     0.0000000000000000     
   6.9200000000000012E-002     0.0000000000000000     
   7.0300000000000029E-002     0.0000000000000000     
   7.1400000000000019E-002     0.0000000000000000     
   7.2500000000000009E-002     0.0000000000000000     
   7.3600000000000027E-002     0.0000000000000000     
   7.4700000000000016E-002     0.0000000000000000     
   7.5800000000000006E-002     0.0000000000000000     
   7.6900000000000024E-002     0.0000000000000000     
   7.8000000000000014E-002     0.0000000000000000     
   7.9100000000000004E-002     0.0000000000000000     
   8.0200000000000021E-002     0.0000000000000000     
   8.1300000000000011E-002     0.0000000000000000     
   8.2400000000000029E-002     0.0000000000000000     
   8.3500000000000019E-002     0.0000000000000000     
   8.4600000000000009E-002     0.0000000000000000     
   8.5700000000000026E-002     0.0000000000000000     
   8.6800000000000016E-002     0.0000000000000000     
   8.7900000000000006E-002     0.0000000000000000     
   8.9000000000000024E-002     0.0000000000000000     
   9.0100000000000013E-002     0.0000000000000000     
   9.1200000000000003E-002     0.0000000000000000     
   9.2300000000000021E-002     0.0000000000000000     
   9.3400000000000011E-002     0.0000000000000000     
   9.4500000000000028E-002     0.0000000000000000     
   9.5600000000000018E-002     0.0000000000000000     
   9.6700000000000008E-002     0.0000000000000000     
   9.7800000000000026E-002     0.0000000000000000     
   9.8900000000000016E-002     8.6499905849710137E-047
  0.10000000000000001          3.4599962339884055E-046
  0.10110000000000002          3.4599962339884055E-046
  0.10220000000000001         -1.7299981169942027E-046
  0.10330000000000003         -8.6499905849710137E-046
  0.10440000000000002         -1.3839984935953622E-045
  0.10550000000000001         -8.6499905849710137E-046
  0.10660000000000003          1.2238819193824566E-045
  0.10770000000000002          3.4857627089614348E-045
  0.10880000000000001          4.1906451932456306E-045
  0.10990000000000003          1.4962648744181017E-045
  0.11100000000000002         -6.3690929596343709E-045
  0.11210000000000001         -1.2876585810390227E-044
  0.11320000000000002         -1.1997353632501681E-044
  0.11430000000000001          9.0634853476650438E-046
  0.11540000000000003          2.2550591068260919E-044
  0.11650000000000002          4.0942804135370001E-044
  0.11760000000000001          3.6442843191859826E-044
  0.11870000000000003         -5.6979837703581045E-046
  0.11980000000000002         -6.4806477001482689E-044
  0.12090000000000001         -1.2343292894224071E-043
  0.12200000000000003         -1.2432074564363956E-043
  0.12310000000000001         -9.8441742045631266E-045
  0.12420000000000003          2.2118508421399928E-043
  0.12530000000000002          4.6260119869023487E-043
  0.12640000000000001          4.8417352777467759E-043
  0.12750000000000003          2.7035544667614643E-044
  0.12860000000000002         -9.5352018736599879E-043
  0.12970000000000001         -1.9854223542920359E-042
  0.13080000000000003         -2.0380322498317291E-042
  0.13190000000000002          8.6152264668516891E-045
  0.13300000000000001          4.2249102875259900E-042
  0.13410000000000000          8.4278128359854481E-042
  0.13520000000000004          8.1422560919725164E-042
  0.13630000000000003         -1.0022681585384237E-042
  0.13740000000000002         -1.8530827652670599E-041
  0.13850000000000001         -3.4747685450073392E-041
  0.13960000000000000         -3.1678037383523048E-041
  0.14070000000000005          6.5886208752600915E-042
  0.14180000000000004          7.5827994367183205E-041
  0.14290000000000003          1.3697475934870720E-040
  0.14400000000000002          1.2237153771612533E-040
  0.14510000000000001         -2.4592053986632819E-041
  0.14620000000000000         -2.8534011433870220E-040
  0.14730000000000004         -5.1714354737910635E-040
  0.14840000000000003         -4.7772735470123274E-040
  0.14950000000000002          3.7864230782947521E-041
  0.15060000000000001          9.7973935122101211E-040
  0.15170000000000000          1.8731158794037559E-039
  0.15280000000000005          1.8830405853870218E-039
  0.15390000000000004          2.4427937576331557E-040
  0.15500000000000003         -3.0225517793824771E-039
  0.15610000000000002         -6.4874903700073270E-039
  0.15720000000000001         -7.3712980980432029E-039
  0.15830000000000000         -2.7712027210925981E-039
  0.15940000000000004          8.0403726225953329E-039
  0.16050000000000003          2.1266328545874833E-038
  0.16160000000000002          2.8029315809310881E-038
  0.16270000000000001          1.7457074345320643E-038
  0.16380000000000000         -1.6178888794678160E-038
  0.16490000000000005         -6.4719143314212466E-038
  0.16600000000000004         -1.0139835471987982E-037
  0.16710000000000003         -8.7083882270442792E-038
  0.16820000000000002          8.6815336701962322E-039
  0.16930000000000001          1.7654125259452191E-037
  0.17040000000000000          3.4251146208546815E-037
  0.17150000000000004          3.7410765593502722E-037
  0.17260000000000003          1.3739078014852991E-037
  0.17370000000000002         -3.9919317294029710E-037
  0.17480000000000001         -1.0583789096664321E-036
  0.17590000000000000         -1.4262639861611100E-036
  0.17700000000000005         -9.8661179564310298E-037
  0.17810000000000004          5.6055795480070042E-037
  0.17920000000000003          2.8999106689865837E-036
  0.18030000000000002          4.8667110132215527E-036
  0.18140000000000001          4.6822820688416482E-036
  0.18250000000000000          8.3324476009852297E-037
  0.18360000000000004         -6.5905112662506545E-036
  0.18470000000000003         -1.4765554893641230E-035
  0.18580000000000002         -1.8207042689292237E-035
  0.18690000000000001         -1.0859762547767385E-035
  0.18800000000000000          9.8819955885120343E-036
  0.18910000000000005          3.8788485256607877E-035
  0.19020000000000004          6.0959843716013994E-035
  0.19130000000000003          5.5640906293632699E-035
  0.19240000000000002          6.8763465911896011E-036
  0.19350000000000001         -8.1834985472607147E-035
  0.19460000000000005         -1.7645374318011417E-034
  0.19570000000000004         -2.1503663507590592E-034
  0.19680000000000003         -1.3152193147304597E-034
  0.19790000000000002          1.0152370468534960E-034
  0.19900000000000001          4.2778428658148464E-034
  0.20010000000000000          6.8881406234833654E-034
  0.20120000000000005          6.6254901094811097E-034
  0.20230000000000004          1.7036092076043537E-034
  0.20340000000000003         -7.7392600603050274E-034
  0.20450000000000002         -1.8448701462599519E-033
  0.20560000000000000         -2.4147623530867500E-033
  0.20670000000000005         -1.7692067021663468E-033
  0.20780000000000004          4.7885290017371782E-034
  0.20890000000000003          3.9196556363452684E-033
  0.21000000000000002          7.0929446324023104E-033
  0.21110000000000001          7.7546131838099637E-033
  0.21220000000000000          3.8246755882235277E-033
  0.21330000000000005         -5.1613292931434774E-033
  0.21440000000000003         -1.6713343722174408E-032
  0.21550000000000002         -2.5092379077475605E-032
  0.21660000000000001         -2.2908210927289800E-032
  0.21770000000000000         -4.7768416571715090E-033
  0.21880000000000005          2.8001921644858152E-032
  0.21990000000000004          6.4075035422156534E-032
  0.22100000000000003          8.2905220513422883E-032
  0.22210000000000002          6.1929700882726859E-032
  0.22320000000000001         -1.0635088131034042E-032
  0.22430000000000000         -1.2189011472675723E-031
  0.22540000000000004         -2.2719584981225045E-031
  0.22650000000000003         -2.5839227667447301E-031
  0.22760000000000002         -1.5131926908878917E-031
  0.22870000000000001          1.1277112000001967E-031
  0.22980000000000000          4.6890102764760588E-031
  0.23090000000000005          7.5808084720386105E-031
  0.23200000000000004          7.6743456261203039E-031
  0.23310000000000003          3.2573834037029489E-031
  0.23420000000000002         -5.7076301937779904E-031
  0.23530000000000001         -1.6594904732751113E-030
  0.23640000000000000         -2.4130611693464638E-030
  0.23750000000000004         -2.1967757453407109E-030
  0.23860000000000003         -5.7746137436942616E-031
  0.23970000000000002          2.3113610773906957E-030
  0.24080000000000001          5.5278473391711588E-030
  0.24190000000000000          7.4109120171965844E-030
  0.24300000000000005          6.1305557945342675E-030
  0.24410000000000004          6.3748636062908708E-031
  0.24520000000000003         -8.3103986365111740E-030
  0.24630000000000002         -1.7584098798575503E-029
  0.24740000000000001         -2.2149594070665466E-029
  0.24850000000000005         -1.6855099408021542E-029
  0.24960000000000004          7.5450549171900107E-031
  0.25070000000000003          2.7618603458562413E-029
  0.25180000000000002          5.3900277930908104E-029
  0.25290000000000001          6.4802906717674883E-029
  0.25400000000000000          4.6075891449310956E-029
  0.25510000000000005         -7.8894953279509530E-030
  0.25620000000000004         -8.6459138080755483E-029
  0.25730000000000003         -1.6004816081402657E-028
  0.25840000000000002         -1.8628855997526810E-028
  0.25950000000000001         -1.2626944985290175E-028
  0.26060000000000005          3.2783152697141744E-029
  0.26170000000000004          2.5730429023499381E-028
  0.26280000000000003          4.6170605111724949E-028
  0.26390000000000002          5.2748552607605628E-028
  0.26500000000000001          3.4930375233882619E-028
  0.26610000000000000         -1.0297638591353114E-028
  0.26720000000000005         -7.3107747969770644E-028
  0.26830000000000004         -1.2960853286983786E-027
  0.26940000000000003         -1.4734817301082597E-027
  0.27050000000000002         -9.7931062240817963E-028
  0.27160000000000001          2.6362486321588950E-028
  0.27270000000000005          1.9860113369517897E-027
  0.27380000000000004          3.5429433944636763E-027
  0.27490000000000003          4.0626209993398162E-027
  0.27600000000000002          2.7806864697649148E-027
  0.27710000000000001         -5.2244579212291676E-028
  0.27820000000000000         -5.1540836298323338E-027
  0.27930000000000005         -9.4286292718132014E-027
  0.28040000000000004         -1.1046245267606269E-026
  0.28150000000000003         -7.9522896709262777E-027
  0.28260000000000002          5.3047095297296190E-028
  0.28370000000000001          1.2733773608148999E-026
  0.28480000000000005          2.4391624046672732E-026
  0.28590000000000004          2.9549478138335804E-026
  0.28700000000000003          2.2708774464255985E-026
  0.28810000000000002          1.7096353547885208E-027
  0.28920000000000001         -2.9723669065797583E-026
  0.29030000000000000         -6.1156750977326408E-026
  0.29140000000000005         -7.7491549910215079E-026
  0.29250000000000004         -6.4152677230591617E-026
  0.29360000000000003         -1.4288343344942836E-026
  0.29470000000000002          6.4587229363815807E-026
  0.29580000000000001          1.4791404384745125E-025
  0.29690000000000005          1.9833399900411842E-025
  0.29800000000000004          1.7779968035087719E-025
  0.29910000000000003          6.5156754526440700E-026
  0.30020000000000002         -1.2675966204643161E-025
  0.30130000000000001         -3.4272091966435714E-025
  0.30240000000000000         -4.9292594795526272E-025
  0.30350000000000005         -4.8011641915320099E-025
  0.30460000000000004         -2.4135876178519175E-025
  0.30570000000000003          2.0879516919340304E-025
  0.30680000000000002          7.5305106901817182E-025
  0.30790000000000001          1.1828246727284415E-024
  0.30900000000000005          1.2559278033632134E-024
  0.31010000000000004          7.9272968055301239E-025
  0.31120000000000003         -2.1748766682244193E-025
  0.31230000000000002         -1.5439697472415478E-024
  0.31340000000000001         -2.7216584174914726E-024
  0.31450000000000006         -3.1660545075906119E-024
  0.31560000000000005         -2.3863657588503403E-024
  0.31670000000000004         -2.4009609921929445E-025
  0.31780000000000003          2.8678994482865065E-024
  0.31890000000000002          5.9511613094999835E-024
  0.32000000000000001          7.6500821785222866E-024
  0.32110000000000005          6.6835654550114624E-024
  0.32220000000000004          2.4379728914804742E-024
  0.32330000000000003         -4.5120117824741668E-024
  0.32440000000000002         -1.2202499396996226E-023
  0.32550000000000001         -1.7605483303474049E-023
  0.32660000000000006         -1.7533856814270872E-023
  0.32770000000000005         -9.9498892493140720E-024
  0.32880000000000004          4.7369703357510269E-024
  0.32990000000000003          2.2942282574432416E-023
  0.33100000000000002          3.8265536761653677E-023
  0.33210000000000001          4.3174326809062912E-023
  0.33320000000000005          3.1774270180399194E-023
  0.33430000000000004          2.8805814760877316E-024
  0.33540000000000003         -3.7795636375933229E-023
  0.33650000000000002         -7.7575666030158076E-023
  0.33760000000000001         -9.9625574749638976E-023
  0.33870000000000006         -8.8482583739624066E-023
  0.33980000000000005         -3.6936349544945879E-023
  0.34090000000000004          4.8119958924166640E-023
  0.34200000000000003          1.4363600390157320E-022
  0.34310000000000002          2.1428183994306280E-022
  0.34420000000000001          2.2266830283948578E-022
  0.34530000000000005          1.4386220956685521E-022
  0.34640000000000004         -2.0281116175135576E-023
  0.34750000000000003         -2.3284286335104606E-022
  0.34860000000000002         -4.2496691434598488E-022
  0.34970000000000001         -5.1286456647884979E-022
  0.35080000000000006         -4.2639669036839921E-022
  0.35190000000000005         -1.4155011406771196E-022
  0.35300000000000004          2.9488625457930910E-022
  0.35410000000000003          7.6075962789704839E-022
  0.35520000000000002          1.0823393459874833E-021
  0.35630000000000001          1.0860688986251582E-021
  0.35740000000000005          6.6675589037452278E-022
  0.35850000000000004         -1.4938750749804918E-022
  0.35960000000000003         -1.1731432158189696E-021
  0.36070000000000002         -2.0742644932584021E-021
  0.36180000000000001         -2.4651224997417589E-021
  0.36290000000000006         -2.0326361049261046E-021
  0.36400000000000005         -6.8229361175723425E-022
  0.36510000000000004          1.3576001799728677E-021
  0.36620000000000003          3.5236914792431035E-021
  0.36730000000000002          5.0299638177319020E-021
  0.36840000000000006          5.0993339950766293E-021
  0.36950000000000005          3.2618540956468367E-021
  0.37060000000000004         -3.7408231676226233E-022
  0.37170000000000003         -4.9884901284708971E-021
  0.37280000000000002         -9.1456842834617422E-021
  0.37390000000000001         -1.1150453828216972E-020
  0.37500000000000006         -9.6065098755953164E-021
  0.37610000000000005         -4.0264772982838193E-021
  0.37720000000000004          4.7198923715236990E-021
  0.37830000000000003          1.4332907887987635E-020
  0.37940000000000002          2.1519819033747041E-020
  0.38050000000000006          2.2924217910416755E-020
  0.38160000000000005          1.6343655727196716E-020
  0.38270000000000004          1.8678993807110722E-021
  0.38380000000000003         -1.7502381784575513E-020
  0.38490000000000002         -3.6127482687211954E-020
  0.38600000000000001         -4.7038262434067625E-020
  0.38710000000000000         -4.4092549872013998E-020
  0.38819999999999999         -2.4427965845526825E-020
  0.38930000000000009          9.5955286900498219E-021
  0.39040000000000008          4.9802808404118519E-020
  0.39150000000000007          8.3538835961446125E-020
  0.39260000000000006          9.6971755839955328E-020
  0.39370000000000005          7.9708933066660855E-020
  0.39480000000000004          2.9428324670553904E-020
  0.39590000000000003         -4.5120370796484683E-020
  0.39700000000000002         -1.2424198529039900E-019
  0.39810000000000001         -1.8132871449759959E-019
  0.39920000000000000         -1.9039715819104181E-019
  0.40029999999999999         -1.3538499182897342E-019
  0.40140000000000009         -1.8392483159728305E-020
  0.40250000000000008          1.3629702157013890E-019
  0.40360000000000007          2.8490942227628283E-019
  0.40470000000000006          3.7435932621793218E-019
  0.40580000000000005          3.5827146559783861E-019
  0.40690000000000004          2.1475033874349593E-019
  0.40800000000000003         -3.9823115045104668E-020
  0.40910000000000002         -3.4672951092102975E-019
  0.41020000000000001         -6.1440259943714037E-019
  0.41130000000000000         -7.4155447536146106E-019
  0.41239999999999999         -6.4935069082897731E-019
  0.41350000000000009         -3.1384013629363979E-019
  0.41460000000000008          2.1235931269691675E-019
  0.41570000000000007          7.9908989966566211E-019
  0.41680000000000006          1.2637089032715359E-018
  0.41790000000000005          1.4199172484538142E-018
  0.41900000000000004          1.1395519118272594E-018
  0.42010000000000003          4.0961741318151985E-019
  0.42120000000000002         -6.3571647306205412E-019
  0.42230000000000001         -1.7247576875654639E-018
  0.42340000000000000         -2.5061185470621677E-018
  0.42449999999999999         -2.6466976067650439E-018
  0.42560000000000009         -1.9465639106529120E-018
  0.42670000000000008         -4.3651308311289099E-019
  0.42780000000000007          1.5780411020203722E-018
  0.42890000000000006          3.5537217610502183E-018
  0.43000000000000005          4.8327703515114445E-018
  0.43110000000000004          4.8326879755626085E-018
  0.43220000000000003          3.2546062669200434E-018
  0.43330000000000002          2.4620160223143324E-019
  0.43440000000000001         -3.5444703044697695E-018
  0.43550000000000000         -7.0663374989426954E-018
  0.43659999999999999         -9.1158579844889206E-018
  0.43770000000000009         -8.6931887971847889E-018
  0.43880000000000008         -5.3715712693800342E-018
  0.43990000000000007          4.3696795983867405E-019
  0.44100000000000006          7.4281997754989026E-018
  0.44210000000000005          1.3627971937776411E-017
  0.44320000000000004          1.6878154790532687E-017
  0.44430000000000003          1.5486795434934403E-017
  0.44540000000000002          8.8692676571187754E-018
  0.44650000000000001         -2.0264288060378265E-018
  0.44760000000000000         -1.4691337771426753E-017
  0.44869999999999999         -2.5516528444060613E-017
  0.44980000000000009         -3.0699403778763718E-017
  0.45090000000000008         -2.7401081019255432E-017
  0.45200000000000007         -1.4841413529260056E-017
  0.45310000000000006          5.0261215777061450E-018
  0.45420000000000005          2.7557896351802187E-017
  0.45530000000000004          4.6314878455580856E-017
  0.45640000000000003          5.4701264133956476E-017
  0.45750000000000002          4.7985050046280591E-017
  0.45860000000000001          2.5146264537193556E-017
  0.45970000000000000         -1.0058068687205945E-017
  0.46079999999999999         -4.9300147062898390E-017
  0.46190000000000009         -8.1346385331832013E-017
  0.46300000000000008         -9.4951490381171054E-017
  0.46410000000000007         -8.2324004072821696E-017
  0.46520000000000006         -4.2200914655458105E-017
  0.46630000000000005          1.8495400634085059E-017
  0.46740000000000004          8.5202353868926949E-017
  0.46850000000000003          1.3871828557206056E-016
  0.46960000000000002          1.6020441831529190E-016
  0.47070000000000001          1.3703062716578208E-016
  0.47180000000000000          6.7830155456858273E-017
  0.47289999999999999         -3.4938146731918549E-017
  0.47400000000000009         -1.4617982288179564E-016
  0.47510000000000008         -2.3345462924469609E-016
  0.47620000000000007         -2.6552161181336002E-016
  0.47730000000000006         -2.2213381933698531E-016
  0.47840000000000005         -1.0231485225217323E-016