 -0.12000000000000000          0.0000000000000000     
 -0.11889999999999999          0.0000000000000000     
 -0.11780000000000000          0.0000000000000000     
 -0.11670000000000000          0.0000000000000000     
 -0.11559999999999999          0.0000000000000000     
 -0.11449999999999999          0.0000000000000000     
 -0.11340000000000000          0.0000000000000000     
 -0.11230000000000000          0.0000000000000000     
 -0.11119999999999999          0.0000000000000000     
 -0.11009999999999999          0.0000000000000000     
 -0.10900000000000000          0.0000000000000000     
 -0.10790000000000000         -1.2721757691166650E-036
 -0.10679999999999999         -9.1907979084561321E-035
 -0.10569999999999999          1.6765714545150479E-033
 -0.10460000000000000          4.1927729019502103E-032
 -0.10349999999999999          3.8046343715236532E-031
 -0.10239999999999999          2.0106262911702922E-030
 -0.10130000000000000          6.5664762654915957E-030
 -0.10020000000000000          9.7236911106842022E-030
  -9.9099999999999994E-002    -2.7530060532085618E-029
  -9.7999999999999990E-002    -2.4305626999871472E-028
  -9.6899999999999986E-002    -9.1261890978363813E-028
  -9.5799999999999996E-002    -2.1692904602722345E-027
  -9.4699999999999993E-002    -2.7599679750880480E-027
  -9.3599999999999989E-002     2.7010847150869401E-027
  -9.2499999999999999E-002     2.6542767951511127E-026
  -9.1399999999999995E-002     8.4032229088512344E-026
  -9.0299999999999991E-002     1.6816024157119116E-025
  -8.9200000000000002E-002     1.8912583200828570E-025
  -8.8099999999999984E-002    -1.0606480879025382E-025
  -8.6999999999999994E-002    -1.1381833088003268E-024
  -8.5899999999999990E-002    -3.2140693026061034E-024
  -8.4799999999999986E-002    -5.7112550329588430E-024
  -8.3699999999999997E-002    -5.7569427199876433E-024
  -8.2599999999999993E-002     2.7366621839634596E-024
  -8.1499999999999989E-002     2.7507256202069965E-023
  -8.0399999999999999E-002     7.0794386084101857E-023
  -7.9299999999999995E-002     1.1510106420651774E-022
  -7.8199999999999992E-002     1.0667641827289302E-022
  -7.7100000000000002E-002    -4.7045906184279721E-023
  -7.5999999999999984E-002    -4.3860777977560034E-022
  -7.4899999999999994E-002    -1.0552529262679885E-021
  -7.3799999999999991E-002    -1.6164862327646673E-021
  -7.2699999999999987E-002    -1.4398055235780851E-021
  -7.1599999999999997E-002     4.8293964123088004E-022
  -7.0499999999999993E-002     4.9687876168466349E-021
  -6.9399999999999989E-002     1.1573467127076689E-020
  -6.8300000000000000E-002     1.7235070233017823E-020
  -6.7199999999999996E-002     1.5513986375526340E-020
  -6.6099999999999992E-002    -2.1208424847228026E-021
  -6.5000000000000002E-002    -4.1557071937169565E-020
  -6.3899999999999985E-002    -9.7781031469218495E-020
  -6.2799999999999995E-002    -1.4591617340592480E-019
  -6.1699999999999991E-002    -1.3810208010794097E-019
  -6.0599999999999994E-002    -1.5129472393025431E-020
  -5.9499999999999990E-002     2.6052254376990960E-019
  -5.8399999999999994E-002     6.5333302080598412E-019
  -5.7299999999999990E-002     1.0050619319169540E-018
  -5.6199999999999986E-002     1.0248013258371738E-018
  -5.5099999999999996E-002     3.6373105277184165E-019
  -5.3999999999999992E-002    -1.1995609303963619E-018
  -5.2899999999999989E-002    -3.4913711028983602E-018
  -5.1799999999999985E-002    -5.7015575624808271E-018
  -5.0699999999999995E-002    -6.3510533929900903E-018
  -4.9599999999999991E-002    -3.6624448701461960E-018
  -4.8499999999999988E-002     3.5778838662525056E-018
  -4.7399999999999998E-002     1.4820530578636675E-017
  -4.6299999999999994E-002     2.6697078941752004E-017
  -4.5199999999999990E-002     3.2851283906057484E-017
  -4.4099999999999986E-002     2.5397909208516549E-017
  -4.2999999999999997E-002    -1.6982793448124428E-018
  -4.1899999999999993E-002    -4.7946562998478541E-017
  -4.0799999999999989E-002    -1.0212555063463806E-016
  -3.9699999999999985E-002    -1.4117549025519436E-016
  -3.8599999999999995E-002    -1.3472772006237310E-016
  -3.7499999999999992E-002    -5.6285131422133776E-017
  -3.6399999999999988E-002     1.0087380925107104E-016
  -3.5299999999999984E-002     3.0854066347444118E-016
  -3.4199999999999994E-002     4.9724355582328849E-016
  -3.3099999999999991E-002     5.6662826798740206E-016
  -3.1999999999999987E-002     4.1622620373046598E-016
  -3.0899999999999997E-002    -7.7848899068951180E-018
  -2.9799999999999993E-002    -6.6392328113673441E-016
  -2.8699999999999989E-002    -1.3863225249119576E-015
  -2.7599999999999986E-002    -1.8972985352511510E-015
  -2.6499999999999996E-002    -1.8744416313637668E-015
  -2.5399999999999992E-002    -1.0665297567370946E-015
  -2.4299999999999988E-002     5.7062379451319029E-016
  -2.3199999999999985E-002     2.7666411855100022E-015
  -2.2099999999999995E-002     4.9117171632274838E-015
  -2.0999999999999991E-002     6.1549808344970573E-015
  -1.9899999999999987E-002     5.6325751047982676E-015
  -1.8799999999999983E-002     2.7851730525921083E-015
  -1.7699999999999994E-002    -2.3207030862545542E-015
  -1.6599999999999990E-002    -8.7805795423260081E-015
  -1.5499999999999986E-002    -1.4858126360660730E-014
  -1.4399999999999996E-002    -1.8277591141097126E-014
  -1.3299999999999992E-002    -1.6798136029003193E-014
  -1.2199999999999989E-002    -8.9759686751676495E-015
  -1.1099999999999985E-002     5.0654996933039940E-015
  -9.9999999999999950E-003     2.3095798589354817E-014
  -8.8999999999999913E-003     4.0715705293715381E-014
  -7.7999999999999875E-003     5.1964726269339209E-014
  -6.6999999999999837E-003     5.0656627594993280E-014
  -5.5999999999999939E-003     3.2299783021111092E-014
  -4.4999999999999901E-003    -3.7837993447784853E-015
  -3.3999999999999864E-003    -5.2752719183315395E-014
  -2.2999999999999826E-003    -1.0368717052952450E-013
  -1.1999999999999927E-003    -1.4083187396245564E-013
  -9.9999999999988987E-005    -1.4694745425143172E-013
   1.0000000000000148E-003    -1.0846218647802286E-013
   2.1000000000000185E-003    -2.1348137669268986E-014
   3.2000000000000084E-003     1.0404139348550696E-013
   4.3000000000000121E-003     2.4124305456812168E-013
   5.4000000000000159E-003     3.5078581164337180E-013
   6.5000000000000058E-003     3.8873374927628128E-013
   7.6000000000000234E-003     3.1955208336648178E-013
   8.7000000000000133E-003     1.3029105350680125E-013
   9.8000000000000032E-003    -1.5830705777225989E-013
   1.0900000000000021E-002    -4.8839885041466938E-013
   1.2000000000000011E-002    -7.7260425778410711E-013
   1.3100000000000001E-002    -9.1298871178595390E-013
   1.4200000000000018E-002    -8.2823435442002757E-013
   1.5300000000000008E-002    -4.8236581196751894E-013
   1.6400000000000026E-002     9.3528009269114488E-014
   1.7500000000000016E-002     7.9466033063216955E-013
   1.8600000000000005E-002     1.4559833907988249E-012
   1.9700000000000023E-002     1.8855666719781704E-012
   2.0800000000000013E-002     1.9120033075511786E-012
   2.1900000000000003E-002     1.4351344788619761E-012
   2.3000000000000020E-002     4.6702589834584672E-013
   2.4100000000000010E-002    -8.4901028625819349E-013
   2.5200000000000000E-002    -2.2495534684984204E-012
   2.6300000000000018E-002    -3.3943193321663802E-012
   2.7400000000000008E-002    -3.9362596852132845E-012
   2.8500000000000025E-002    -3.6065069706653725E-012
   2.9600000000000015E-002    -2.2970323144581171E-012
   3.0700000000000005E-002    -1.2132529082949492E-013
   3.1800000000000023E-002     2.5657952472986756E-012
   3.2900000000000013E-002     5.2032669474835107E-012
   3.4000000000000002E-002     7.1184750376865738E-012
   3.5100000000000020E-002     7.6728300646656018E-012
   3.6200000000000010E-002     6.4338024235217863E-012
   3.7300000000000028E-002     3.3345862926183490E-012
   3.8400000000000017E-002    -1.2255006382100275E-012
   3.9500000000000007E-002    -6.3833733283398374E-012
   4.0600000000000025E-002    -1.0942743548753971E-011
   4.1700000000000015E-002    -1.3626737591684464E-011
   4.2800000000000005E-002    -1.3407658618916780E-011
   4.3900000000000022E-002    -9.8343362292080743E-012
   4.5000000000000012E-002    -3.2599763363019023E-012
   4.6100000000000002E-002     5.1164829022380313E-012
   4.7200000000000020E-002     1.3441907652716626E-011
   4.8300000000000010E-002     1.9616008747156994E-011
   4.9400000000000027E-002     2.1826865863479001E-011
   5.0500000000000017E-002     1.9075053707470476E-011
   5.1600000000000007E-002     1.1531013246843902E-011
   5.2700000000000025E-002     6.0280436939365164E-013
   5.3800000000000014E-002    -1.1333224697907832E-011
   5.4900000000000004E-002    -2.1488303683950187E-011
   5.6000000000000022E-002    -2.7363148306757521E-011
   5.7100000000000012E-002    -2.7403812257772091E-011
   5.8200000000000002E-002    -2.1425141169224035E-011
   5.9300000000000019E-002    -1.0679319762777962E-011
   6.0400000000000009E-002     2.4508975291554417E-012
   6.1500000000000027E-002     1.5046755072258973E-011
   6.2600000000000017E-002     2.4369493757557832E-011
   6.3700000000000007E-002     2.8505302965118527E-011
   6.4800000000000024E-002     2.6778336652570979E-011
   6.5900000000000014E-002     1.9845272356159130E-011
   6.7000000000000004E-002     9.4741930760628562E-012
   6.8100000000000022E-002    -1.9139988625915322E-012
   6.9200000000000012E-002    -1.1820676690607568E-011
   7.0300000000000029E-002    -1.8233464742349742E-011
   7.1400000000000019E-002    -2.0070157501025412E-011
   7.2500000000000009E-002    -1.7422484241880693E-011
   7.3600000000000027E-002    -1.1548117757001168E-011
   7.4700000000000016E-002    -4.5881826630045667E-012
   7.5800000000000006E-002     9.7331074312494413E-013
   7.6900000000000024E-002     3.0326405048436277E-012
   7.8000000000000014E-002     6.2065715854617147E-013
   7.9100000000000004E-002    -5.5331895560251169E-012
   8.0200000000000021E-002    -1.2872972930822711E-011
   8.1300000000000011E-002    -1.7509645378923165E-011
   8.2400000000000029E-002    -1.5357982726385124E-011
   8.3500000000000019E-002    -3.7008532554788992E-012
   8.4600000000000009E-002     1.7276192863321830E-011
   8.5700000000000026E-002     4.3577038749386805E-011
   8.6800000000000016E-002     6.7655532480495913E-011
   8.7900000000000006E-002     8.0096050802486448E-011
   8.9000000000000024E-002     7.2490020725871963E-011
   9.0100000000000013E-002     4.0763663000020057E-011
   9.1200000000000003E-002    -1.2156290797098623E-011
   9.2300000000000021E-002    -7.5484732675235197E-011
   9.3400000000000011E-002    -1.3227890640418729E-010
   9.4500000000000028E-002    -1.6368259163137419E-010
   9.5600000000000018E-002    -1.5477572073395877E-010
   9.6700000000000008E-002    -1.0032679875171020E-010
   9.7800000000000026E-002    -8.4518961865843807E-012
   9.8900000000000016E-002     9.9450676909443769E-011
  0.10000000000000001          1.9312211843942240E-010
  0.10110000000000002          2.4148358058689757E-010
  0.10220000000000001          2.2224588379241397E-010
  0.10330000000000003          1.3024690360918982E-010
  0.10440000000000002         -1.8271507334202412E-011
  0.10550000000000001         -1.8727249513376892E-010
  0.10660000000000003         -3.2861388425518027E-010
  0.10770000000000002         -3.9419886897978219E-010
  0.10880000000000001         -3.4953345764249414E-010
  0.10990000000000003         -1.8504289583309861E-010
  0.11100000000000002          7.8060699919571836E-011
  0.11210000000000001          3.8922679689875143E-010
  0.11320000000000002          6.7736317617195994E-010
  0.11430000000000001          8.6521504313626239E-010
  0.11540000000000003          8.8627721157112436E-010
  0.11650000000000002          7.0068728018827413E-010
  0.11760000000000001          3.0683897632802682E-010
  0.11870000000000003         -2.5365605621808692E-010
  0.11980000000000002         -8.9883750131429838E-010
  0.12090000000000001         -1.5170248510456523E-009
  0.12200000000000003         -1.9839586942482813E-009
  0.12310000000000001         -2.1841489667897186E-009
  0.12420000000000003         -2.0331950510646592E-009
  0.12530000000000002         -1.4971635918468907E-009
  0.12640000000000001         -6.0490215164341660E-010
  0.12750000000000003          5.5022819571948490E-010
  0.12860000000000002          1.8211002539511962E-009
  0.12970000000000001          3.0293583114582207E-009
  0.13080000000000003          3.9959806283580810E-009
  0.13190000000000002          4.5733894634371097E-009
  0.13300000000000001          4.6713007145192771E-009
  0.13410000000000000          4.2693362164808570E-009
  0.13520000000000004          3.4126394723620153E-009
  0.13630000000000003          2.1916295145720215E-009
  0.13740000000000002          7.1228013007638900E-010
  0.13850000000000001         -9.3293688703906325E-010
  0.13960000000000000         -2.6825642084931894E-009
  0.14070000000000005         -4.5042159908032260E-009
  0.14180000000000004         -6.3714076104687280E-009
  0.14290000000000003         -8.2249256116076207E-009
  0.14400000000000002         -9.9309768094950183E-009
  0.14510000000000001         -1.1251414971199635E-008
  0.14620000000000000         -1.1839679068019756E-008
  0.14730000000000004         -1.1269769190335783E-008
  0.14840000000000003         -9.0966083510100375E-009
  0.14950000000000002         -4.9372620728978282E-009
  0.15060000000000001          1.4432824624327479E-009
  0.15170000000000000          1.0058785157590816E-008
  0.15280000000000005          2.0653105103494195E-008
  0.15390000000000004          3.2679962321599087E-008
  0.15500000000000003          4.5305170496008222E-008
  0.15610000000000002          5.7418195068354352E-008
  0.15720000000000001          6.7636704284192389E-008
  0.15830000000000000          7.4290117905373307E-008
  0.15940000000000004          7.5374105273375233E-008
  0.16050000000000003          6.8475433656363321E-008
  0.16160000000000002          5.0672311760262252E-008
  0.16270000000000001          1.8418501165548676E-008
  0.16380000000000000         -3.2583339446632837E-008
  0.16490000000000005         -1.0751710695395631E-007
  0.16600000000000004         -2.1260445175356896E-007
  0.16710000000000003         -3.5528283253368210E-007
  0.16820000000000002         -5.4442858124000017E-007
  0.16930000000000001         -7.9064444996922940E-007
  0.17040000000000000         -1.1066355248605396E-006
  0.17150000000000004         -1.5076938716260080E-006
  0.17260000000000003         -2.0123204437788272E-006
  0.17370000000000002         -2.6430042597110493E-006
  0.17480000000000001         -3.4271832833707010E-006
  0.17590000000000000         -4.3984021432343985E-006
  0.17700000000000005         -5.5976773591869769E-006
  0.17810000000000004         -7.0750660575930097E-006
  0.17920000000000003         -8.8914454627642067E-006
  0.18030000000000002         -1.1120489485187439E-005
  0.18140000000000001         -1.3850855338379651E-005
  0.18250000000000000         -1.7188606596037007E-005
  0.18360000000000004         -2.1259923065325806E-005
  0.18470000000000003         -2.6214149957620218E-005
  0.18580000000000002         -3.2227303789272196E-005
  0.18690000000000001         -3.9506074363912744E-005
  0.18800000000000000         -4.8292395599619765E-005
  0.18910000000000005         -5.8868638343774371E-005
  0.19020000000000004         -7.1563354169630288E-005
  0.19130000000000003         -8.6757628905543917E-005
  0.19240000000000002         -1.0489190587983562E-004
  0.19350000000000001         -1.2647330319642735E-004
  0.19460000000000005         -1.5208338722331891E-004
  0.19570000000000004         -1.8238624208000647E-004
  0.19680000000000003         -2.1813707826114301E-004
  0.19790000000000002         -2.6019115060111578E-004
  0.19900000000000001         -3.0951308173637714E-004
  0.20010000000000000         -3.6718618373366438E-004
  0.20120000000000005         -4.3442204039527226E-004
  0.20230000000000004         -5.1256983506989056E-004
  0.20340000000000003         -6.0312528316064991E-004
  0.20450000000000002         -7.0773867214052192E-004
  0.20560000000000000         -8.2822162160079110E-004
  0.20670000000000005         -9.6655270087837495E-004
  0.20780000000000004         -1.1248813523061089E-003
  0.20890000000000003         -1.3055289650248294E-003
  0.21000000000000002         -1.5109874148197114E-003
  0.21110000000000001         -1.7439153286101063E-003
  0.21220000000000000         -2.0071292545432683E-003
  0.21330000000000005         -2.3035926670968514E-003
  0.21440000000000003         -2.6363985911099451E-003
  0.21550000000000002         -3.0087479262644852E-003
  0.21660000000000001         -3.4239219571798925E-003
  0.21770000000000000         -3.8852500576749324E-003
  0.21880000000000005         -4.3960685181214368E-003
  0.21990000000000004         -4.9596765412337962E-003
  0.22100000000000003         -5.5792817234798881E-003
  0.22210000000000002         -6.2579408412828533E-003
  0.22320000000000001         -6.9984942449828422E-003
  0.22430000000000000         -7.8034915574285123E-003
  0.22540000000000004         -8.6751143184000869E-003
  0.22650000000000003         -9.6150919768572055E-003
  0.22760000000000002         -1.0624611330886526E-002
  0.22870000000000001         -1.1704229396871971E-002
  0.22980000000000000         -1.2853776437797013E-002
  0.23090000000000005         -1.4072261603109577E-002
  0.23200000000000004         -1.5357782221688560E-002
  0.23310000000000003         -1.6707431798790522E-002
  0.23420000000000002         -1.8117214211139723E-002
  0.23530000000000001         -1.9581973033941213E-002
  0.23640000000000000         -2.1095313227902524E-002
  0.23750000000000004         -2.2649559496580145E-002
  0.23860000000000003         -2.4235702446802607E-002
  0.23970000000000002         -2.5843383080999781E-002
  0.24080000000000001         -2.7460886914188534E-002
  0.24190000000000000         -2.9075163075327669E-002
  0.24300000000000005         -3.0671865405170473E-002
  0.24410000000000004         -3.2235420829786504E-002
  0.24520000000000003         -3.3749132119562320E-002
  0.24630000000000002         -3.5195277823901125E-002
  0.24740000000000001         -3.6555285910812224E-002
  0.24850000000000005         -3.7809899357137911E-002
  0.24960000000000004         -3.8939372766986259E-002
  0.25070000000000003         -3.9923707418143856E-002
  0.25180000000000002         -4.0742907831422377E-002
  0.25290000000000001         -4.1377255702739507E-002
  0.25400000000000000         -4.1807584314873782E-002
  0.25510000000000005         -4.2015606141098283E-002
  0.25620000000000004         -4.1984190483560543E-002
  0.25730000000000003         -4.1697709211629776E-002
  0.25840000000000002         -4.1142327563067058E-002
  0.25950000000000001         -4.0306310514242709E-002
  0.26060000000000005         -3.9180317801571753E-002
  0.26170000000000004         -3.7757673138274224E-002
  0.26280000000000003         -3.6034590755529713E-002
  0.26390000000000002         -3.4010387176242073E-002
  0.26500000000000001         -3.1687653273915220E-002
  0.26610000000000000         -2.9072389202116505E-002
  0.26720000000000005         -2.6174066402216412E-002
  0.26830000000000004         -2.3005665993200954E-002
  0.26940000000000003         -1.9583641781550799E-002
  0.27050000000000002         -1.5927838512903129E-002
  0.27160000000000001         -1.2061350536672271E-002
  0.27270000000000005         -8.0103262270163483E-003
  0.27380000000000004         -3.8037173226797153E-003
  0.27490000000000003          5.2702572191856212E-004
  0.27600000000000002          4.9483048098125891E-003
  0.27710000000000001          9.4247696438128845E-003
  0.27820000000000000          1.3919748773712066E-002
  0.27930000000000005          1.8395710849389801E-002
  0.28040000000000004          2.2814751126190747E-002
  0.28150000000000003          2.7139079042501863E-002
  0.28260000000000002          3.1331518225226049E-002
  0.28370000000000001          3.5356011318901252E-002
  0.28480000000000005          3.9178094801117072E-002
  0.28590000000000004          4.2765372838700688E-002
  0.28700000000000003          4.6087927114689398E-002
  0.28810000000000002          4.9118731108222943E-002
  0.28920000000000001          5.1833983868692188E-002
  0.29030000000000000          5.4213414216549363E-002
  0.29140000000000005          5.6240521070134192E-002
  0.29250000000000004          5.7902754846879373E-002
  0.29360000000000003          5.9191634684824787E-002
  0.29470000000000002          6.0102792178148137E-002
  0.29580000000000001          6.0635967689962961E-002
  0.29690000000000005          6.0794929719407753E-002
  0.29800000000000004          6.0587342395998348E-002
  0.29910000000000003          6.0024574088154772E-002
  0.30020000000000002          5.9121454922285287E-002
  0.30130000000000001          5.7895983494038558E-002
  0.30240000000000000          5.6368992867532379E-002
  0.30350000000000005          5.4563786969080402E-002
  0.30460000000000004          5.2505759074523088E-002
  0.30570000000000003          5.0221983766047279E-002
  0.30680000000000002          4.7740784247275889E-002
  0.30790000000000001          4.5091341858335243E-002
  0.30900000000000005          4.2303262292749770E-002
  0.31010000000000004          3.9406171776692110E-002
  0.31120000000000003          3.6429355551742336E-002
  0.31230000000000002          3.3401386770976697E-002
  0.31340000000000001          3.0349797565732917E-002
  0.31450000000000006          2.7300802037334423E-002
  0.31560000000000005          2.4279020243240509E-002
  0.31670000000000004          2.1307276400510607E-002
  0.31780000000000003          1.8406411388084562E-002
  0.31890000000000002          1.5595156966275600E-002
  0.32000000000000001          1.2890033169946007E-002
  0.32110000000000005          1.0305297163955195E-002
  0.32220000000000004          7.8529246447353544E-003
  0.32330000000000003          5.5426326131250781E-003
  0.32440000000000002          3.3819286972862385E-003
  0.32550000000000001          1.3761920940431732E-003
  0.32660000000000006         -4.7122142521037534E-004
  0.32770000000000005         -2.1588549291833591E-003
  0.32880000000000004         -3.6870089891275614E-003
  0.32990000000000003         -5.0575840907088393E-003
  0.33100000000000002         -6.2739155265307484E-003
  0.33210000000000001         -7.3405989383787621E-003
  0.33320000000000005         -8.2633127380825604E-003
  0.33430000000000004         -9.0486420723412207E-003
  0.33540000000000003         -9.7039112606502088E-003
  0.33650000000000002         -1.0237018387626749E-002
  0.33760000000000001         -1.0656283200919173E-002
  0.33870000000000006         -1.0970302660723472E-002
  0.33980000000000005         -1.1187822331143080E-002
  0.34090000000000004         -1.1317611105681287E-002
  0.34200000000000003         -1.1368353681702218E-002
  0.34310000000000002         -1.1348554367200274E-002
  0.34420000000000001         -1.1266457070488943E-002
  0.34530000000000005         -1.1129970001550592E-002
  0.34640000000000004         -1.0946615346437363E-002
  0.34750000000000003         -1.0723484267913589E-002
  0.34860000000000002         -1.0467208745733425E-002
  0.34970000000000001         -1.0183940953810255E-002
  0.35080000000000006         -9.8793394217489821E-003
  0.35190000000000005         -9.5585698429956206E-003
  0.35300000000000004         -9.2263015349468673E-003
  0.35410000000000003         -8.8867212702624342E-003
  0.35520000000000002         -8.5435399647965926E-003
  0.35630000000000001         -8.2000155417587990E-003
  0.35740000000000005         -7.8589696784789036E-003
  0.35850000000000004         -7.5228148095277357E-003
  0.35960000000000003         -7.1935805741998966E-003
  0.36070000000000002         -6.8729446550389733E-003
  0.36180000000000001         -6.5622587163699378E-003
  0.36290000000000006         -6.2625792157725646E-003
  0.36400000000000005         -5.9746959810155582E-003
  0.36510000000000004         -5.6991555385653165E-003
  0.36620000000000003         -5.4362897494777762E-003
  0.36730000000000002         -5.1862372459634690E-003
  0.36840000000000006         -4.9489695843290315E-003
  0.36950000000000005         -4.7243119008496103E-003
  0.37060000000000004         -4.5119694869108296E-003
  0.37170000000000003         -4.3115477580148078E-003
  0.37280000000000002         -4.1225727307517236E-003
  0.37390000000000001         -3.9445122035461546E-003
  0.37500000000000006         -3.7767917642668918E-003
  0.37610000000000005         -3.6188096076663909E-003
  0.37720000000000004         -3.4699497757326538E-003
  0.37830000000000003         -3.3295927674613104E-003
  0.37940000000000002         -3.1971255350327840E-003
  0.38050000000000006         -3.0719500572980525E-003
  0.38160000000000005         -2.9534916180275561E-003
  0.38270000000000004         -2.8412084338351145E-003
  0.38380000000000003         -2.7345983213372302E-003
  0.38490000000000002         -2.6332067368432634E-003
  0.38600000000000001         -2.5366291594993611E-003
  0.38710000000000000         -2.4445129894543425E-003
  0.38819999999999999         -2.3565557759744208E-003
  0.38930000000000009         -2.2725004480713866E-003
  0.39040000000000008         -2.1921314557746497E-003
  0.39150000000000007         -2.1152711165654484E-003
  0.39260000000000006         -2.0417767682383019E-003
  0.39370000000000005         -1.9715374349808415E-003
  0.39480000000000004         -1.9044730015788463E-003
  0.39590000000000003         -1.8405299997590278E-003
  0.39700000000000002         -1.7796777888012300E-003
  0.39810000000000001         -1.7219027620381984E-003
  0.39920000000000000         -1.6672019219689624E-003
  0.40029999999999999         -1.6155762823036632E-003
  0.40140000000000009         -1.5670253312027227E-003
  0.40250000000000008         -1.5215425533222503E-003
  0.40360000000000007         -1.4791134360874615E-003
  0.40470000000000006         -1.4397137783912976E-003
  0.40580000000000005         -1.4033111127218579E-003
  0.40690000000000004         -1.3698654541171031E-003
  0.40800000000000003         -1.3393325326544049E-003
  0.40910000000000002         -1.3116657152365784E-003
  0.41020000000000001         -1.2868194861359796E-003
  0.41130000000000000         -1.2647522632016699E-003
  0.41239999999999999         -1.2454286233997240E-003
  0.41350000000000009         -1.2288231545776536E-003
  0.41460000000000008         -1.2149225817162832E-003
  0.41570000000000007         -1.2037307811682558E-003
  0.41680000000000006         -1.1952730269944208E-003
  0.41790000000000005         -1.1896016408984309E-003
  0.41900000000000004         -1.1868014966675499E-003
  0.42010000000000003         -1.1869940657454193E-003
  0.42120000000000002         -1.1903399798647756E-003
  0.42230000000000001         -1.1970391455026024E-003
  0.42340000000000000         -1.2073280136825119E-003
  0.42449999999999999         -1.2214750748237983E-003
  0.42560000000000009         -1.2397746362755634E-003
  0.42670000000000008         -1.2625391096702267E-003
  0.42780000000000007         -1.2900918636121531E-003
  0.42890000000000006         -1.3227582997545966E-003
  0.43000000000000005         -1.3608560339247854E-003
  0.43110000000000004         -1.4046844347634349E-003
  0.43220000000000003         -1.4545113699106446E-003
  0.43330000000000002         -1.5105578860415509E-003
  0.43440000000000001         -1.5729821518757768E-003
  0.43550000000000000         -1.6418613246374926E-003
  0.43659999999999999         -1.7171730719564039E-003
  0.43770000000000009         -1.7987781479771286E-003
  0.43880000000000008         -1.8864036871058081E-003
  0.43990000000000007         -1.9796293302593560E-003
  0.44100000000000006         -2.0778752624701319E-003
  0.44210000000000005         -2.1803924805565856E-003
  0.44320000000000004         -2.2862559305370971E-003
  0.44430000000000003         -2.3943586293110517E-003
  0.44540000000000002         -2.5034086506274082E-003
  0.44650000000000001         -2.6119273619499327E-003
  0.44760000000000000         -2.7182503201606512E-003
  0.44869999999999999         -2.8205342374241957E-003
  0.44980000000000009         -2.9167666300145274E-003
  0.45090000000000008         -3.0047837964104172E-003
  0.45200000000000007         -3.0822916146201976E-003
  0.45310000000000006         -3.1468928228309935E-003
  0.45420000000000005         -3.1961155383933440E-003
  0.45530000000000004         -3.2274461530265057E-003
  0.45640000000000003         -3.2383635495719354E-003
  0.45750000000000002         -3.2263730615637938E-003
  0.45860000000000001         -3.1890447313785747E-003
  0.45970000000000000         -3.1240510316866265E-003
  0.46079999999999999         -3.0292087380122306E-003
  0.46190000000000009         -2.9025203302030988E-003
  0.46300000000000008         -2.7422171231628631E-003
  0.46410000000000007         -2.5468014389142847E-003
  0.46520000000000006         -2.3150871847097800E-003
  0.46630000000000005         -2.0462367947587873E-003
  0.46740000000000004         -1.7397929552781534E-003
  0.46850000000000003         -1.3957062628758481E-003
  0.46960000000000002         -1.0143561889604485E-003
  0.47070000000000001         -5.9656623201954212E-004
  0.47180000000000000         -1.4361450362176056E-004
  0.47289999999999999          3.4276246013501335E-004
  0.47400000000000009          8.6037156951910198E-004
  0.47510000000000008          1.4065702348012347E-003
  0.47620000000000007          1.9782811290550155E-003
  0.47730000000000006          2.5720129961965847E-003
  0.47840000000000005          3.1838897802748496E-003