 -0.12000000000000000          0.0000000000000000     
 -0.11889999999999999          0.0000000000000000     
 -0.11780000000000000         -3.1255301068790541E-009
 -0.11670000000000000         -1.3342241862805267E-008
 -0.11559999999999999         -3.1817624661806509E-008
 -0.11449999999999999         -5.4708035044485175E-008
 -0.11340000000000000         -7.4388933138263597E-008
 -0.11230000000000000         -8.3890318953831633E-008
 -0.11119999999999999         -8.2012548986440524E-008
 -0.11009999999999999         -7.5823656821110021E-008
 -0.10900000000000000         -7.8587705375872462E-008
 -0.10790000000000000         -1.0388626580187226E-007
 -0.10679999999999999         -1.5910671311988580E-007
 -0.10569999999999999         -2.4204836006608875E-007
 -0.10460000000000000         -3.4272005984543443E-007
 -0.10349999999999999         -4.4944081204615738E-007
 -0.10239999999999999         -5.5588740913683733E-007
 -0.10130000000000000         -6.6523454644456594E-007
 -0.10020000000000000         -7.8928932634327412E-007
  -9.9099999999999994E-002    -9.4345699623491846E-007
  -9.7999999999999990E-002    -1.1407139176179365E-006
  -9.6899999999999986E-002    -1.3881604568504537E-006
  -9.5799999999999996E-002    -1.6880173679590596E-006
  -9.4699999999999993E-002    -2.0422172096384322E-006
  -9.3599999999999989E-002    -2.4576746386571103E-006
  -9.2499999999999999E-002    -2.9491008515127739E-006
  -9.1399999999999995E-002    -3.5378533691131464E-006
  -9.0299999999999991E-002    -4.2477560178271626E-006
  -8.9200000000000002E-002    -5.1005656325891840E-006
  -8.8099999999999984E-002    -6.1138650186461472E-006
  -8.6999999999999994E-002    -7.3026193458640985E-006
  -8.5899999999999990E-002    -8.6835485769974363E-006
  -8.4799999999999986E-002    -1.0279933740017971E-005
  -8.3699999999999997E-002    -1.2124472398104188E-005
  -8.2599999999999993E-002    -1.4258994469151797E-005
  -8.1499999999999989E-002    -1.6731622864048251E-005
  -8.0399999999999999E-002    -1.9593158864185004E-005
  -7.9299999999999995E-002    -2.2894562028054716E-005
  -7.8199999999999992E-002    -2.6686567614855615E-005
  -7.7100000000000002E-002    -3.1021235239515313E-005
  -7.5999999999999984E-002    -3.5954308208870096E-005
  -7.4899999999999994E-002    -4.1547181514892832E-005
  -7.3799999999999991E-002    -4.7867707276881120E-005
  -7.2699999999999987E-002    -5.4989640565046920E-005
  -7.1599999999999997E-002    -6.2991162419511441E-005
  -7.0499999999999993E-002    -7.1953080459463209E-005
  -6.9399999999999989E-002    -8.1957069044777194E-005
  -6.8300000000000000E-002    -9.3083921021659130E-005
  -6.7199999999999996E-002    -1.0541226837177051E-004
  -6.6099999999999992E-002    -1.1901763032993072E-004
  -6.5000000000000002E-002    -1.3397158630935324E-004
  -6.3899999999999985E-002    -1.5034106753051581E-004
  -6.2799999999999995E-002    -1.6818754610307190E-004
  -6.1699999999999991E-002    -1.8756524996050073E-004
  -6.0599999999999994E-002    -2.0851868486602512E-004
  -5.9499999999999990E-002    -2.3107919711385746E-004
  -5.8399999999999994E-002    -2.5526133561797873E-004
  -5.7299999999999990E-002    -2.8105860797109897E-004
  -5.6199999999999986E-002    -3.0844000874766952E-004
  -5.5099999999999996E-002    -3.3734653889935329E-004
  -5.3999999999999992E-002    -3.6768924659178452E-004
  -5.2899999999999989E-002    -3.9934662914234344E-004
  -5.1799999999999985E-002    -4.3216323284493263E-004
  -5.0699999999999995E-002    -4.6594809277072062E-004
  -4.9599999999999991E-002    -5.0047361296209620E-004
  -4.8499999999999988E-002    -5.3547352497688571E-004
  -4.7399999999999998E-002    -5.7064142651258912E-004
  -4.6299999999999994E-002    -6.0562773704296894E-004
  -4.5199999999999990E-002    -6.4003767110533362E-004
  -4.4099999999999986E-002    -6.7343032172348946E-004
  -4.2999999999999997E-002    -7.0532125605169489E-004
  -4.1899999999999993E-002    -7.3518505289870946E-004
  -4.0799999999999989E-002    -7.6246429013397937E-004
  -3.9699999999999985E-002    -7.8657613699455327E-004
  -3.8599999999999995E-002    -8.0691792018278629E-004
  -3.7499999999999992E-002    -8.2287119499085200E-004
  -3.6399999999999988E-002    -8.3380564911389877E-004
  -3.5299999999999984E-002    -8.3908388045297053E-004
  -3.4199999999999994E-002    -8.3807253989903296E-004
  -3.3099999999999991E-002    -8.3015494817670669E-004
  -3.1999999999999987E-002    -8.1474701453004112E-004
  -3.0899999999999997E-002    -7.9131413261221168E-004
  -2.9799999999999993E-002    -7.5938374197008702E-004
  -2.8699999999999989E-002    -7.1855721667377559E-004
  -2.7599999999999986E-002    -6.6851753992677753E-004
  -2.6499999999999996E-002    -6.0903682074674149E-004
  -2.5399999999999992E-002    -5.3998928095980126E-004
  -2.4299999999999988E-002    -4.6136422502964398E-004
  -2.3199999999999985E-002    -3.7327643693182614E-004
  -2.2099999999999995E-002    -2.7597826285364501E-004
  -2.0999999999999991E-002    -1.6986682384064356E-004
  -1.9899999999999987E-002    -5.5486565201488493E-005
  -1.8799999999999983E-002     6.6467369756361772E-005
  -1.7699999999999994E-002     1.9515249168503495E-004
  -1.6599999999999990E-002     3.2958112712989690E-004
  -1.5499999999999986E-002     4.6862823628694543E-004
  -1.4399999999999996E-002     6.1104065093923348E-004
  -1.3299999999999992E-002     7.5545074748283329E-004
  -1.2199999999999989E-002     9.0039046642356355E-004
  -1.1099999999999985E-002     1.0443090799616248E-003
  -9.9999999999999950E-003     1.1855910290468168E-003
  -8.8999999999999913E-003     1.3225762138608498E-003
  -7.7999999999999875E-003     1.4535835620267754E-003
  -6.6999999999999837E-003     1.5769367471581543E-003
  -5.5999999999999939E-003     1.6909921943413105E-003
  -4.4999999999999901E-003     1.7941701871928364E-003
  -3.3999999999999864E-003     1.8849861103108021E-003
  -2.2999999999999826E-003     1.9620797667167433E-003
  -1.1999999999999927E-003     2.0242392648675686E-003
  -9.9999999999988987E-005     2.0704211927173822E-003
   1.0000000000000148E-003     2.0997675273843074E-003
   2.1000000000000185E-003     2.1116216709587405E-003
   3.2000000000000084E-003     2.1055448947716114E-003
   4.3000000000000121E-003     2.0813329313415499E-003
   5.4000000000000159E-003     2.0390278258502564E-003
   6.5000000000000058E-003     1.9789275573005981E-003
   7.6000000000000234E-003     1.9015822070128838E-003
   8.7000000000000133E-003     1.8077842876438109E-003
   9.8000000000000032E-003     1.6985556737066690E-003
   1.0900000000000021E-002     1.5751309329687122E-003
   1.2000000000000011E-002     1.4389401015408730E-003
   1.3100000000000001E-002     1.2915915521653192E-003
   1.4200000000000018E-002     1.1348481757257043E-003
   1.5300000000000008E-002     9.7059738125940514E-004
   1.6400000000000026E-002     8.0082099425846337E-004
   1.7500000000000016E-002     6.2756244200352310E-004
   1.8600000000000005E-002     4.5289377260432611E-004
   1.9700000000000023E-002     2.7888323127379770E-004
   2.0800000000000013E-002     1.0756444198558058E-004
   2.1900000000000003E-002    -5.9104150805442497E-005
   2.3000000000000020E-002    -2.1927159549711128E-004
   2.4100000000000010E-002    -3.7121765989226119E-004
   2.5200000000000000E-002    -5.1337591927475435E-004
   2.6300000000000018E-002    -6.4435854388772255E-004
   2.7400000000000008E-002    -7.6296949898016627E-004
   2.8500000000000025E-002    -8.6822186092677341E-004
   2.9600000000000015E-002    -9.5934426821774879E-004
   3.0700000000000005E-002    -1.0357901792018838E-003
   3.1800000000000023E-002    -1.0972426300048712E-003
   3.2900000000000013E-002    -1.1436165100435429E-003
   3.4000000000000002E-002    -1.1750560483989401E-003
   3.5100000000000020E-002    -1.1919218660201725E-003
   3.6200000000000010E-002    -1.1947773597765663E-003
   3.7300000000000028E-002    -1.1843676318504181E-003
   3.8400000000000017E-002    -1.1615959392058304E-003
   3.9500000000000007E-002    -1.1275053597133262E-003
   4.0600000000000025E-002    -1.0832579645974555E-003
   4.1700000000000015E-002    -1.0301171081908737E-003
   4.2800000000000005E-002    -9.6942720890681429E-004
   4.3900000000000022E-002    -9.0258777671699177E-004
   4.5000000000000012E-002    -8.3102477127471193E-004
   4.6100000000000002E-002    -7.5616178763216585E-004
   4.7200000000000020E-002    -6.7939349185081846E-004
   4.8300000000000010E-002    -6.0206318010526307E-004
   4.9400000000000027E-002    -5.2544613896368989E-004
   5.0500000000000017E-002    -4.5073512136082272E-004
   5.1600000000000007E-002    -3.7902596839640718E-004
   5.2700000000000025E-002    -3.1130199923984705E-004
   5.3800000000000014E-002    -2.4841866046827049E-004
   5.4900000000000004E-002    -1.9109081374443998E-004
   5.6000000000000022E-002    -1.3988451987724049E-004
   5.7100000000000012E-002    -9.5215423074991384E-005
   5.8200000000000002E-002    -5.7349679725389523E-005
   5.9300000000000019E-002    -2.6407626055711280E-005
   6.0400000000000009E-002    -2.3690005886210070E-006
   6.1500000000000027E-002     1.4923199626117848E-005
   6.2600000000000017E-002     2.5758289597519162E-005
   6.3700000000000007E-002     3.0549410398569642E-005
   6.4800000000000024E-002     2.9820246543400369E-005
   6.5900000000000014E-002     2.4187570949009632E-005
   6.7000000000000004E-002     1.4340491504411581E-005
   6.8100000000000022E-002     1.0219326220351301E-006
   6.9200000000000012E-002    -1.4989418155568821E-005
   7.0300000000000029E-002    -3.2893998748273942E-005
   7.1400000000000019E-002    -5.1887270871343909E-005
   7.2500000000000009E-002    -7.1177064620502755E-005
   7.3600000000000027E-002    -9.0001697851077524E-005
   7.4700000000000016E-002    -1.0765008062047079E-004
   7.5800000000000006E-002    -1.2348070746837070E-004
   7.6900000000000024E-002    -1.3693539891746821E-004
   7.8000000000000014E-002    -1.4754894582545680E-004
   7.9100000000000004E-002    -1.5495556643085385E-004
   8.0200000000000021E-002    -1.5889361434036321E-004
   8.1300000000000011E-002    -1.5920947369022769E-004
   8.2400000000000029E-002    -1.5586158165698376E-004
   8.3500000000000019E-002    -1.4892101912995529E-004
   8.4600000000000009E-002    -1.3856868196264862E-004
   8.5700000000000026E-002    -1.2508789151578713E-004
   8.6800000000000016E-002    -1.0885279765874236E-004
   8.7900000000000006E-002    -9.0313888485546068E-005
   8.9000000000000024E-002    -6.9982499766869377E-005
   9.0100000000000013E-002    -4.8416119466821098E-005
   9.1200000000000003E-002    -2.6203381679388703E-005
   9.2300000000000021E-002    -3.9492855410925837E-006
   9.3400000000000011E-002     1.7741777718530301E-005
   9.4500000000000028E-002     3.8284298187062480E-005
   9.5600000000000018E-002     5.7130854834073472E-005
   9.6700000000000008E-002     7.3789521230396593E-005
   9.7800000000000026E-002     8.7839070933333084E-005
   9.8900000000000016E-002     9.8940067247870085E-005
  0.10000000000000001          1.0684191007386362E-004
  0.10110000000000002          1.1138677044742330E-004
  0.10220000000000001          1.1251242628155367E-004
  0.10330000000000003          1.1025381160645552E-004
  0.10440000000000002          1.0474270884865650E-004
  0.10550000000000001          9.6205414494835608E-005
  0.10660000000000003          8.4956707657445586E-005
  0.10770000000000002          7.1389123373518613E-005
  0.10880000000000001          5.5959099986600214E-005
  0.10990000000000003          3.9170882990928204E-005
  0.11100000000000002          2.1558984732576446E-005
  0.11210000000000001          3.6717598750288571E-006
  0.11320000000000002         -1.3944172175417485E-005
  0.11430000000000001         -3.0757916541823249E-005
  0.11540000000000003         -4.6267669657805054E-005
  0.11650000000000002         -6.0014141370017782E-005
  0.11760000000000001         -7.1594349484037026E-005
  0.11870000000000003         -8.0674927594827643E-005
  0.11980000000000002         -8.7003656312875500E-005
  0.12090000000000001         -9.0417479126195450E-005
  0.12200000000000003         -9.0846638345513795E-005
  0.12310000000000001         -8.8313910088219785E-005
  0.12420000000000003         -8.2930607890426832E-005
  0.12530000000000002         -7.4890504957846542E-005
  0.12640000000000001         -6.4463041770836189E-005
  0.12750000000000003         -5.1985855396464711E-005
  0.12860000000000002         -3.7856119236122256E-005
  0.12970000000000001         -2.2519483341731513E-005
  0.13080000000000003         -6.4558521121374085E-006
  0.13190000000000002          9.8371773297875448E-006
  0.13300000000000001          2.5861784734002292E-005
  0.13410000000000000          4.1136008053269864E-005
  0.13520000000000004          5.5207118047395042E-005
  0.13630000000000003          6.7661718661505809E-005
  0.13740000000000002          7.8134162691852064E-005
  0.13850000000000001          8.6314798745886138E-005
  0.13960000000000000          9.1959241056661995E-005
  0.14070000000000005          9.4898104167649833E-005
  0.14180000000000004          9.5045207605913210E-005
  0.14290000000000003          9.2401484632757507E-005
  0.14400000000000002          8.7053224050099499E-005
  0.14510000000000001          7.9164715122784072E-005
  0.14620000000000000          6.8967663262571783E-005
  0.14730000000000004          5.6750762352864603E-005
  0.14840000000000003          4.2851446988444793E-005
  0.14950000000000002          2.7649922007753287E-005
  0.15060000000000001          1.1563677613371834E-005
  0.15170000000000000         -4.9607080108758658E-006
  0.15280000000000005         -2.1460630116134886E-005
  0.15390000000000004         -3.7474929458990581E-005
  0.15500000000000003         -5.2563166864807519E-005
  0.15610000000000002         -6.6322595458146962E-005
  0.15720000000000001         -7.8399432943931769E-005
  0.15830000000000000         -8.8493895539765684E-005
  0.15940000000000004         -9.6360906604330595E-005
  0.16050000000000003         -1.0181016030042559E-004
  0.16160000000000002         -1.0470896230159727E-004
  0.16270000000000001         -1.0498843973024357E-004
  0.16380000000000000         -1.0265135169482077E-004
  0.16490000000000005         -9.7777395353740288E-005
  0.16600000000000004         -9.0522532549342324E-005
  0.16710000000000003         -8.1111151133296216E-005
  0.16820000000000002         -6.9822817304975729E-005
  0.16930000000000001         -5.6977541653892901E-005
  0.17040000000000000         -4.2923577242733697E-005
  0.17150000000000004         -2.8029520904654269E-005
  0.17260000000000003         -1.2679825373822758E-005
  0.17370000000000002          2.7295338242505928E-006
  0.17480000000000001          1.7798702095891856E-005
  0.17590000000000000          3.2136218899852094E-005
  0.17700000000000005          4.5374706575685747E-005
  0.17810000000000004          5.7186267544639117E-005
  0.17920000000000003          6.7293780958822846E-005
  0.18030000000000002          7.5476126764622501E-005
  0.18140000000000001          8.1568270993054781E-005
  0.18250000000000000          8.5459314543581119E-005
  0.18360000000000004          8.7092104755311900E-005
  0.18470000000000003          8.6465922874914055E-005
  0.18580000000000002          8.3641031535402485E-005
  0.18690000000000001          7.8741823689800378E-005
  0.18800000000000000          7.1954822696776476E-005
  0.18910000000000005          6.3520099560325535E-005
  0.19020000000000004          5.3717684373740242E-005
  0.19130000000000003          4.2852911973372520E-005
  0.19240000000000002          3.1245086741445993E-005
  0.19350000000000001          1.9221433427045283E-005
  0.19460000000000005          7.1151000896100336E-006
  0.19570000000000004         -4.7367344677490741E-006
  0.19680000000000003         -1.5998882345108549E-005
  0.19790000000000002         -2.6350229115622000E-005
  0.19900000000000001         -3.5500210443236949E-005
  0.20010000000000000         -4.3204954675376209E-005
  0.20120000000000005         -4.9277895084974309E-005
  0.20230000000000004         -5.3592070699364058E-005
  0.20340000000000003         -5.6075234875061716E-005
  0.20450000000000002         -5.6702186314124021E-005
  0.20560000000000000         -5.5489745710502114E-005
  0.20670000000000005         -5.2497325948596058E-005
  0.20780000000000004         -4.7832421617410037E-005
  0.20890000000000003         -4.1656435594722939E-005
  0.21000000000000002         -3.4185464457350413E-005
  0.21110000000000001         -2.5682726474184966E-005
  0.21220000000000000         -1.6443261635187872E-005
  0.21330000000000005         -6.7754685927941164E-006
  0.21440000000000003          3.0146799138132308E-006
  0.21550000000000002          1.2632638376797213E-005
  0.21660000000000001          2.1797388726439504E-005
  0.21770000000000000          3.0240219245168781E-005
  0.21880000000000005          3.7705377557534992E-005
  0.21990000000000004          4.3956327441226650E-005
  0.22100000000000003          4.8787827228564652E-005
  0.22210000000000002          5.2040122443977385E-005
  0.22320000000000001          5.3610086146353258E-005
  0.22430000000000000          5.3455280471013109E-005
  0.22540000000000004          5.1590271524081308E-005
  0.22650000000000003          4.8078165819331799E-005
  0.22760000000000002          4.3021973501613977E-005
  0.22870000000000001          3.6559706863586198E-005
  0.22980000000000000          2.8863865127857344E-005
  0.23090000000000005          2.0143063065628607E-005
  0.23200000000000004          1.0641664340620271E-005
  0.23310000000000003          6.3415970459415819E-007
  0.23420000000000002         -9.5861987584587943E-006
  0.23530000000000001         -1.9722144601435184E-005
  0.23640000000000000         -2.9486352603248522E-005
  0.23750000000000004         -3.8611224867067438E-005
  0.23860000000000003         -4.6853395801407952E-005
  0.23970000000000002         -5.3994721182078979E-005
  0.24080000000000001         -5.9843060678092816E-005
  0.24190000000000000         -6.4235668232314112E-005
  0.24300000000000005         -6.7046153066345441E-005
  0.24410000000000004         -6.8192958966999898E-005
  0.24520000000000003         -6.7646212785279152E-005
  0.24630000000000002         -6.5429818541721017E-005
  0.24740000000000001         -6.1617785437774448E-005
  0.24850000000000005         -5.6326233392368233E-005
  0.24960000000000004         -4.9704251269336098E-005
  0.25070000000000003         -4.1926815127103136E-005
  0.25180000000000002         -3.3191251751577804E-005
  0.25290000000000001         -2.3716368178096681E-005
  0.25400000000000000         -1.3741643644973748E-005
  0.25510000000000005         -3.5235761256235155E-006
  0.25620000000000004          6.6723320356278783E-006
  0.25730000000000003          1.6583125438981969E-005
  0.25840000000000002          2.5960819656096274E-005
  0.25950000000000001          3.4582392788730146E-005
  0.26060000000000005          4.2255223489318097E-005
  0.26170000000000004          4.8817920943562299E-005
  0.26280000000000003          5.4138691619935221E-005
  0.26390000000000002          5.8114191999693196E-005
  0.26500000000000001          6.0671074189143533E-005
  0.26610000000000000          6.1770410334934732E-005
  0.26720000000000005          6.1413104231291827E-005
  0.26830000000000004          5.9643182357567860E-005
  0.26940000000000003          5.6546774697299831E-005
  0.27050000000000002          5.2246057495292348E-005
  0.27160000000000001          4.6890155514070087E-005
  0.27270000000000005          4.0645951572184033E-005
  0.27380000000000004          3.3691709205549837E-005
  0.27490000000000003          2.6214452387837596E-005
  0.27600000000000002          1.8409760061988882E-005
  0.27710000000000001          1.0481179343149909E-005
  0.27820000000000000          2.6366019992047487E-006
  0.27930000000000005         -4.9192941551225722E-006
  0.28040000000000004         -1.1995090050224076E-005
  0.28150000000000003         -1.8422103113849840E-005
  0.28260000000000002         -2.4060260269482199E-005
  0.28370000000000001         -2.8799120072377300E-005
  0.28480000000000005         -3.2555171033340298E-005
  0.28590000000000004         -3.5268357481086638E-005
  0.28700000000000003         -3.6900794745937343E-005
  0.28810000000000002         -3.7439109624866563E-005
  0.28920000000000001         -3.6899301211235716E-005
  0.29030000000000000         -3.5331164450479646E-005
  0.29140000000000005         -3.2819160642921910E-005
  0.29250000000000004         -2.9478194183848375E-005
  0.29360000000000003         -2.5445279727723262E-005
  0.29470000000000002         -2.0870046803584081E-005
  0.29580000000000001         -1.5907501839629197E-005
  0.29690000000000005         -1.0714905449667227E-005
  0.29800000000000004         -5.4523144994831150E-006
  0.29910000000000003         -2.8416788181941250E-007
  0.30020000000000002          4.6212509519918889E-006
  0.30130000000000001          9.0963624058212431E-006
  0.30240000000000000          1.2982448246187508E-005
  0.30350000000000005          1.6138965116926529E-005
  0.30460000000000004          1.8450729061625972E-005
  0.30570000000000003          1.9830787752526572E-005
  0.30680000000000002          2.0218838572620511E-005
  0.30790000000000001          1.9577172128154550E-005
  0.30900000000000005          1.7886982871588945E-005
  0.31010000000000004          1.5147252546483447E-005
  0.31120000000000003          1.1376582009015791E-005
  0.31230000000000002          6.6164841737121965E-006
  0.31340000000000001          9.3367918206470752E-007
  0.31450000000000006         -5.5806603653102562E-006
  0.31560000000000005         -1.2815224375418878E-005
  0.31670000000000004         -2.0645268503492511E-005
  0.31780000000000003         -2.8939562380780123E-005
  0.31890000000000002         -3.7565652088335041E-005
  0.32000000000000001         -4.6392645018856170E-005
  0.32110000000000005         -5.5292339855443035E-005
  0.32220000000000004         -6.4140186848799351E-005
  0.32330000000000003         -7.2817526380347111E-005
  0.32440000000000002         -8.1215618551878663E-005
  0.32550000000000001         -8.9240491332913529E-005
  0.32660000000000006         -9.6817132593125219E-005
  0.32770000000000005         -1.0389150914459649E-004
  0.32880000000000004         -1.1042997896811597E-004
  0.32990000000000003         -1.1641686760512876E-004
  0.33100000000000002         -1.2185165639640577E-004
  0.33210000000000001         -1.2674709351511359E-004
  0.33320000000000005         -1.3112865097254960E-004
  0.33430000000000004         -1.3503460267888902E-004
  0.33540000000000003         -1.3851508772115025E-004
  0.33650000000000002         -1.4162925832190081E-004
  0.33760000000000001         -1.4443984368220724E-004
  0.33870000000000006         -1.4700651311014729E-004
  0.33980000000000005         -1.4937952068485758E-004
  0.34090000000000004         -1.5159536800705620E-004
  0.34200000000000003         -1.5367479749975945E-004
  0.34310000000000002         -1.5562269251088868E-004
  0.34420000000000001         -1.5742786995469823E-004
  0.34530000000000005         -1.5906161897033901E-004
  0.34640000000000004         -1.6047437002007436E-004
  0.34750000000000003         -1.6159148196678359E-004
  0.34860000000000002         -1.6231001600044737E-004
  0.34970000000000001         -1.6249825454043334E-004
  0.35080000000000006         -1.6199847996847317E-004
  0.35190000000000005         -1.6063263089778368E-004
  0.35300000000000004         -1.5820874593968102E-004
  0.35410000000000003         -1.5452659816672724E-004
  0.35520000000000002         -1.4938160232309209E-004
  0.35630000000000001         -1.4256722157143009E-004
  0.35740000000000005         -1.3387759350204072E-004
  0.35850000000000004         -1.2311149853575775E-004
  0.35960000000000003         -1.1007848106689807E-004
  0.36070000000000002         -9.4606546965244644E-005
  0.36180000000000001         -7.6550231209302074E-005
  0.36290000000000006         -5.5797317034702156E-005
  0.36400000000000005         -3.2273533358872022E-005
  0.36510000000000004         -5.9454241300174412E-006
  0.36620000000000003          2.3177945223652968E-005
  0.36730000000000002          5.5043433890178623E-005
  0.36840000000000006          8.9551998729289534E-005
  0.36950000000000005          1.2655699101684497E-004
  0.37060000000000004          1.6586313974517310E-004
  0.37170000000000003          2.0722700862097266E-004
  0.37280000000000002          2.5035907606218484E-004
  0.37390000000000001          2.9492719915328019E-004
  0.37500000000000006          3.4056107505313305E-004
  0.37610000000000005          3.8685713091600601E-004
  0.37720000000000004          4.3338419900994457E-004
  0.37830000000000003          4.7968965896375514E-004
  0.37940000000000002          5.2530647039646615E-004
  0.38050000000000006          5.6976063984013779E-004
  0.38160000000000005          6.1257873875243392E-004
  0.38270000000000004          6.5329559000513863E-004
  0.38380000000000003          6.9146059906879010E-004
  0.38490000000000002          7.2664471783499851E-004
  0.38600000000000001          7.5844656979193073E-004
  0.38710000000000000          7.8649932906970255E-004
  0.38819999999999999          8.1047711685499181E-004
  0.38930000000000009          8.3010067173279630E-004
  0.39040000000000008          8.4514203509397754E-004
  0.39150000000000007          8.5542683054439731E-004
  0.39260000000000006          8.6083618041365940E-004
  0.39370000000000005          8.6130749626895872E-004
  0.39480000000000004          8.5683579476856055E-004
  0.39590000000000003          8.4747449660171306E-004
  0.39700000000000002          8.3333580973575809E-004
  0.39810000000000001          8.1458911466141719E-004
  0.39920000000000000          7.9145801919409454E-004
  0.40029999999999999          7.6421445663565825E-004
  0.40140000000000009          7.3317271251498715E-004
  0.40250000000000008          6.9868356981832769E-004
  0.40360000000000007          6.6112908462628698E-004
  0.40470000000000006          6.2091903773731896E-004
  0.40580000000000005          5.7848555220227338E-004
  0.40690000000000004          5.3427737245110435E-004
  0.40800000000000003          4.8875217734328769E-004
  0.40910000000000002          4.4236720998559005E-004
  0.41020000000000001          3.9557105631480210E-004
  0.41130000000000000          3.4879658190405712E-004
  0.41239999999999999          3.0245612608363154E-004
  0.41350000000000009          2.5693838806279686E-004
  0.41460000000000008          2.1260531938767976E-004
  0.41570000000000007          1.6978839638609065E-004
  0.41680000000000006          1.2878361177772509E-004
  0.41790000000000005          8.9846496558249929E-005
  0.41900000000000004          5.3188326981651736E-005
  0.42010000000000003          1.8974954925764464E-005
  0.42120000000000002         -1.2671952834969577E-005
  0.42230000000000001         -4.1672301988821160E-005
  0.42340000000000000         -6.7984952467051320E-005
  0.42449999999999999         -9.1606159860238155E-005
  0.42560000000000009         -1.1256889809629862E-004
  0.42670000000000008         -1.3094199846751340E-004
  0.42780000000000007         -1.4682772850428889E-004
  0.42890000000000006         -1.6035705246679916E-004
  0.43000000000000005         -1.7168303697611491E-004
  0.43110000000000004         -1.8097376871168607E-004
  0.43220000000000003         -1.8840628062301889E-004
  0.43330000000000002         -1.9416236041094930E-004
  0.43440000000000001         -1.9842607234374235E-004
  0.43550000000000000         -2.0138172880083030E-004
  0.43659999999999999         -2.0321107693339058E-004
  0.43770000000000009         -2.0408939210881405E-004
  0.43880000000000008         -2.0418074591021135E-004
  0.43990000000000007         -2.0363385819859717E-004
  0.44100000000000006         -2.0257969384949171E-004
  0.44210000000000005         -2.0113135375626897E-004
  0.44320000000000004         -1.9938583178232957E-004
  0.44430000000000003         -1.9742650746252684E-004
  0.44540000000000002         -1.9532554768854598E-004
  0.44650000000000001         -1.9314541822676182E-004
  0.44760000000000000         -1.9094012567897527E-004
  0.44869999999999999         -1.8875659365563249E-004
  0.44980000000000009         -1.8663718067690366E-004
  0.45090000000000008         -1.8462334673877032E-004
  0.45200000000000007         -1.8276049599437770E-004
  0.45310000000000006         -1.8110306666749022E-004
  0.45420000000000005         -1.7971938138634260E-004
  0.45530000000000004         -1.7869568511922213E-004
  0.45640000000000003         -1.7813929222688907E-004
  0.45750000000000002         -1.7818075366101874E-004
  0.45860000000000001         -1.7897513118703503E-004
  0.45970000000000000         -1.8070260153770182E-004
  0.46079999999999999         -1.8356857401891704E-004
  0.46190000000000009         -1.8780339357702709E-004
  0.46300000000000008         -1.9366174233994313E-004
  0.46410000000000007         -2.0142173817546145E-004
  0.46520000000000006         -2.1138305220454179E-004
  0.46630000000000005         -2.2386381345065946E-004
  0.46740000000000004         -2.3919577615973467E-004
  0.46850000000000003         -2.5771786420025972E-004
  0.46960000000000002         -2.7976886141361129E-004
  0.47070000000000001         -3.0567980495087895E-004
  0.47180000000000000         -3.3576720525771658E-004
  0.47289999999999999         -3.7032681857185931E-004
  0.47400000000000009         -4.0962779832202321E-004
  0.47510000000000008         -4.5390632990227370E-004
  0.47620000000000007         -5.0335819275109609E-004
  0.47730000000000006         -5.5812978549801232E-004
  0.47840000000000005         -6.1830928719555124E-004