 -0.12000000000000000          0.0000000000000000     
 -0.11889999999999999          0.0000000000000000     
 -0.11780000000000000          0.0000000000000000     
 -0.11670000000000000          0.0000000000000000     
 -0.11559999999999999          0.0000000000000000     
 -0.11449999999999999          0.0000000000000000     
 -0.11340000000000000          0.0000000000000000     
 -0.11230000000000000          0.0000000000000000     
 -0.11119999999999999          0.0000000000000000     
 -0.11009999999999999          0.0000000000000000     
 -0.10900000000000000          0.0000000000000000     
 -0.10790000000000000          0.0000000000000000     
 -0.10679999999999999          0.0000000000000000     
 -0.10569999999999999          0.0000000000000000     
 -0.10460000000000000          0.0000000000000000     
 -0.10349999999999999          0.0000000000000000     
 -0.10239999999999999          0.0000000000000000     
 -0.10130000000000000          0.0000000000000000     
 -0.10020000000000000          0.0000000000000000     
  -9.9099999999999994E-002     0.0000000000000000     
  -9.7999999999999990E-002     0.0000000000000000     
  -9.6899999999999986E-002     0.0000000000000000     
  -9.5799999999999996E-002     0.0000000000000000     
  -9.4699999999999993E-002     0.0000000000000000     
  -9.3599999999999989E-002     0.0000000000000000     
  -9.2499999999999999E-002     0.0000000000000000     
  -9.1399999999999995E-002     0.0000000000000000     
  -9.0299999999999991E-002     0.0000000000000000     
  -8.9200000000000002E-002     0.0000000000000000     
  -8.8099999999999984E-002     0.0000000000000000     
  -8.6999999999999994E-002     0.0000000000000000     
  -8.5899999999999990E-002     0.0000000000000000     
  -8.4799999999999986E-002     0.0000000000000000     
  -8.3699999999999997E-002     0.0000000000000000     
  -8.2599999999999993E-002     0.0000000000000000     
  -8.1499999999999989E-002     0.0000000000000000     
  -8.0399999999999999E-002     0.0000000000000000     
  -7.9299999999999995E-002     0.0000000000000000     
  -7.8199999999999992E-002     0.0000000000000000     
  -7.7100000000000002E-002     0.0000000000000000     
  -7.5999999999999984E-002     0.0000000000000000     
  -7.4899999999999994E-002     0.0000000000000000     
  -7.3799999999999991E-002     0.0000000000000000     
  -7.2699999999999987E-002     0.0000000000000000     
  -7.1599999999999997E-002     0.0000000000000000     
  -7.0499999999999993E-002     0.0000000000000000     
  -6.9399999999999989E-002     0.0000000000000000     
  -6.8300000000000000E-002     0.0000000000000000     
  -6.7199999999999996E-002     0.0000000000000000     
  -6.6099999999999992E-002     0.0000000000000000     
  -6.5000000000000002E-002     0.0000000000000000     
  -6.3899999999999985E-002     0.0000000000000000     
  -6.2799999999999995E-002     0.0000000000000000     
  -6.1699999999999991E-002     0.0000000000000000     
  -6.0599999999999994E-002     0.0000000000000000     
  -5.9499999999999990E-002     0.0000000000000000     
  -5.8399999999999994E-002     0.0000000000000000     
  -5.7299999999999990E-002     0.0000000000000000     
  -5.6199999999999986E-002     0.0000000000000000     
  -5.5099999999999996E-002     0.0000000000000000     
  -5.3999999999999992E-002     0.0000000000000000     
  -5.2899999999999989E-002     0.0000000000000000     
  -5.1799999999999985E-002     0.0000000000000000     
  -5.0699999999999995E-002     0.0000000000000000     
  -4.9599999999999991E-002     0.0000000000000000     
  -4.8499999999999988E-002     0.0000000000000000     
  -4.7399999999999998E-002     0.0000000000000000     
  -4.6299999999999994E-002     0.0000000000000000     
  -4.5199999999999990E-002     0.0000000000000000     
  -4.4099999999999986E-002     0.0000000000000000     
  -4.2999999999999997E-002     0.0000000000000000     
  -4.1899999999999993E-002     0.0000000000000000     
  -4.0799999999999989E-002     0.0000000000000000     
  -3.9699999999999985E-002     0.0000000000000000     
  -3.8599999999999995E-002     0.0000000000000000     
  -3.7499999999999992E-002     0.0000000000000000     
  -3.6399999999999988E-002     0.0000000000000000     
  -3.5299999999999984E-002     0.0000000000000000     
  -3.4199999999999994E-002     0.0000000000000000     
  -3.3099999999999991E-002     0.0000000000000000     
  -3.1999999999999987E-002     0.0000000000000000     
  -3.0899999999999997E-002     0.0000000000000000     
  -2.9799999999999993E-002     0.0000000000000000     
  -2.8699999999999989E-002     0.0000000000000000     
  -2.7599999999999986E-002     0.0000000000000000     
  -2.6499999999999996E-002     0.0000000000000000     
  -2.5399999999999992E-002     0.0000000000000000     
  -2.4299999999999988E-002     0.0000000000000000     
  -2.3199999999999985E-002     0.0000000000000000     
  -2.2099999999999995E-002     0.0000000000000000     
  -2.0999999999999991E-002     0.0000000000000000     
  -1.9899999999999987E-002     0.0000000000000000     
  -1.8799999999999983E-002     0.0000000000000000     
  -1.7699999999999994E-002     0.0000000000000000     
  -1.6599999999999990E-002     0.0000000000000000     
  -1.5499999999999986E-002     0.0000000000000000     
  -1.4399999999999996E-002     0.0000000000000000     
  -1.3299999999999992E-002     0.0000000000000000     
  -1.2199999999999989E-002     0.0000000000000000     
  -1.1099999999999985E-002     0.0000000000000000     
  -9.9999999999999950E-003     0.0000000000000000     
  -8.8999999999999913E-003     0.0000000000000000     
  -7.7999999999999875E-003     0.0000000000000000     
  -6.6999999999999837E-003     0.0000000000000000     
  -5.5999999999999939E-003     0.0000000000000000     
  -4.4999999999999901E-003     0.0000000000000000     
  -3.3999999999999864E-003     0.0000000000000000     
  -2.2999999999999826E-003     0.0000000000000000     
  -1.1999999999999927E-003     0.0000000000000000     
  -9.9999999999988987E-005     0.0000000000000000     
   1.0000000000000148E-003     0.0000000000000000     
   2.1000000000000185E-003     0.0000000000000000     
   3.2000000000000084E-003     0.0000000000000000     
   4.3000000000000121E-003    -7.0915425894722795E-061
   5.4000000000000159E-003     1.7299981169941919E-046
   6.5000000000000058E-003     3.4599962339883615E-046
   7.6000000000000234E-003     1.7299981169941697E-046
   8.7000000000000133E-003    -8.6499905849710044E-046
   9.8000000000000032E-003    -1.5569983052947713E-045
   1.0900000000000021E-002     1.7299981169943700E-046
   1.2000000000000011E-002     4.8165113353801003E-045
   1.3100000000000001E-002     8.4220239888642089E-045
   1.4200000000000018E-002     4.2096621125271040E-045
   1.5300000000000008E-002    -9.8375555203781688E-045
   1.6400000000000026E-002    -2.3725023614396156E-044
   1.7500000000000016E-002    -1.5077117044624243E-044
   1.8600000000000005E-002     2.5274171278903571E-044
   1.9700000000000023E-002     7.4652367100108879E-044
   2.0800000000000013E-002     7.5169767919135880E-044
   2.1900000000000003E-002    -2.6275734863965456E-044
   2.3000000000000020E-002    -1.9561826396089730E-043
   2.4100000000000010E-002    -2.7543681258185074E-043
   2.5200000000000000E-002    -6.8109764874761736E-044
   2.6300000000000018E-002     4.2792538339228717E-043
   2.7400000000000008E-002     8.4400354698140942E-043
   2.8500000000000025E-002     5.6786622029861526E-043
   2.9600000000000015E-002    -6.7692567081133254E-043
   3.0700000000000005E-002    -2.1761868552594186E-042
   3.1800000000000023E-002    -2.2828883645137873E-042
   3.2900000000000013E-002     3.1524500891863756E-043
   3.4000000000000002E-002     4.6870830545305073E-042
   3.5100000000000020E-002     6.9803483949035472E-042
   3.6200000000000010E-002     2.7964481224934156E-042
   3.7300000000000028E-002    -7.9327504776864219E-042
   3.8400000000000017E-002    -1.7545607126117760E-041
   3.9500000000000007E-002    -1.4004599461295406E-041
   4.0600000000000025E-002     8.1512454242302686E-042
   4.1700000000000015E-002     3.6747501130098853E-041
   4.2800000000000005E-002     4.3749017333726625E-041
   4.3900000000000022E-002     6.6166143181482775E-042
   4.5000000000000012E-002    -6.2391142298785286E-041
   4.6100000000000002E-002    -1.0735815048230796E-040
   4.7200000000000020E-002    -6.3484698306787850E-041
   4.8300000000000010E-002     7.6430613163007357E-041
   4.9400000000000027E-002     2.1889760736521051E-040
   5.0500000000000017E-002     2.1184151380052779E-040
   5.1600000000000007E-002    -2.4633368973046116E-041
   5.2700000000000025E-002    -3.7112051804147143E-040
   5.3800000000000014E-002    -5.2485121014913414E-040
   5.4900000000000004E-002    -2.1886919038710048E-040
   5.6000000000000022E-002     4.8100597567012612E-040
   5.7100000000000012E-002     1.0721594291380349E-039
   5.8200000000000002E-002     9.0488946936027089E-040
   5.9300000000000019E-002    -2.4431866276150113E-040
   6.0400000000000009E-002    -1.7595040824626668E-039
   6.1500000000000027E-002    -2.3972405679150675E-039
   6.2600000000000017E-002    -1.1594764370428432E-039
   6.3700000000000007E-002     1.7421175666147167E-039
   6.4800000000000024E-002     4.6350370869415150E-039
   6.5900000000000014E-002     5.2038026312229576E-039
   6.7000000000000004E-002     1.9193196886948000E-039
   6.8100000000000022E-002    -4.7963118839119479E-039
   6.9200000000000012E-002    -1.2168629463765729E-038
   7.0300000000000029E-002    -1.5336905912587943E-038
   7.1400000000000019E-002    -8.4358215054256146E-039
   7.2500000000000009E-002     1.2279892769198278E-038
   7.3600000000000027E-002     4.2174779797563475E-038
   7.4700000000000016E-002     6.1581803250619853E-038
   7.5800000000000006E-002     3.7949570363654003E-038
   7.6900000000000024E-002    -5.2324455992201157E-038
   7.8000000000000014E-002    -1.8408779799066480E-037
   7.9100000000000004E-002    -2.5442435515477754E-037
   8.0200000000000021E-002    -1.1475302158400151E-037
   8.1300000000000011E-002     3.0452346765318155E-037
   8.2400000000000029E-002     8.2488196715261303E-037
   8.3500000000000019E-002     9.5992957415551920E-037
   8.4600000000000009E-002     1.5058916037588449E-037
   8.5700000000000026E-002    -1.6725653187193402E-036
   8.6800000000000016E-002    -3.5092148476416808E-036
   8.7900000000000006E-002    -3.3244788531918897E-036
   8.9000000000000024E-002     7.3736301611578737E-037
   9.0100000000000013E-002     8.1470872782608942E-036
   9.1200000000000003E-002     1.4222452590965028E-035
   9.2300000000000021E-002     1.1093049395641171E-035
   9.3400000000000011E-002    -7.0580018663374408E-036
   9.4500000000000028E-002    -3.5950750484798884E-035
   9.5600000000000018E-002    -5.6038930135418962E-035
   9.6700000000000008E-002    -3.8077999619562565E-035
   9.7800000000000026E-002     3.6429251552441246E-035
   9.8900000000000016E-002     1.4680287621513245E-034
  0.10000000000000001          2.1750911369093392E-034
  0.10110000000000002          1.4171624509525485E-034
  0.10220000000000001         -1.4403184520332554E-034
  0.10330000000000003         -5.6027680042895191E-034
  0.10440000000000002         -8.3215771586594079E-034
  0.10550000000000001         -5.7318075115375483E-034
  0.10660000000000003          4.5558335123490945E-034
  0.10770000000000002          1.9984838847150798E-033
  0.10880000000000001          3.1098314709595900E-033
  0.10990000000000003          2.4112497064363657E-033
  0.11100000000000002         -1.0511034892917541E-033
  0.11210000000000001         -6.6091200619905778E-033
  0.11320000000000002         -1.1200239333865585E-032
  0.11430000000000001         -1.0031414064353424E-032
  0.11540000000000003          7.3345859706022923E-034
  0.11650000000000002          1.9930214374091607E-032
  0.11760000000000001          3.8329803582484644E-032
  0.11870000000000003          3.9888234339617733E-032
  0.11980000000000002          9.6459687113331744E-033
  0.12090000000000001         -5.3077957279306670E-032
  0.12200000000000003         -1.2292581081777077E-031
  0.12310000000000001         -1.4884461085915553E-031
  0.12420000000000003         -7.5460083260908456E-032
  0.12530000000000002          1.1580819025134648E-031
  0.12640000000000001          3.6391192459919960E-031
  0.12750000000000003          5.1634005498178808E-031
  0.12860000000000002          3.8057833628593938E-031
  0.12970000000000001         -1.5495673870079400E-031
  0.13080000000000003         -9.7410268254664908E-031
  0.13190000000000002         -1.6554168880309376E-030
  0.13300000000000001         -1.5738049830782538E-030
  0.13410000000000000         -2.3177959451534536E-031
  0.13520000000000004          2.2690945670603370E-030
  0.13630000000000003          4.8758125050791121E-030
  0.13740000000000002          5.7013137298650060E-030
  0.13850000000000001          2.8524604285974613E-030
  0.13960000000000000         -4.1571564017153404E-030
  0.14070000000000005         -1.3059095270995994E-029
  0.14180000000000004         -1.8593470277751974E-029
  0.14290000000000003         -1.4321562391727804E-029
  0.14400000000000002          3.4493628463060750E-030
  0.14510000000000001          3.1074073203541474E-029
  0.14620000000000000          5.5213831348842243E-029
  0.14730000000000004          5.5935285822925113E-029
  0.14840000000000003          1.6671831921255728E-029
  0.14950000000000002         -6.1560224887111964E-029
  0.15060000000000001         -1.4907141290505535E-028
  0.15170000000000000         -1.8952385349358088E-028
  0.15280000000000005         -1.2225708040619572E-028
  0.15390000000000004          7.7595503957781141E-029
  0.15500000000000003          3.5786196975131643E-028
  0.15610000000000002          5.7513858873532134E-028
  0.15720000000000001          5.3502587288436929E-028
  0.15830000000000000          9.3888724367884819E-029
  0.15940000000000004         -7.0869099137224428E-028
  0.16050000000000003         -1.5581052064931504E-027
  0.16160000000000002         -1.9019672795158907E-027
  0.16270000000000001         -1.1725612169877766E-027
  0.16380000000000000          8.3925339542439808E-028
  0.16490000000000005          3.6146705947468683E-027
  0.16600000000000004          5.7907948031856770E-027
  0.16710000000000003          5.5307607298058917E-027
  0.16820000000000002          1.4351831875120062E-027
  0.16930000000000001         -6.2697549269558670E-027
  0.17040000000000000         -1.4869590476071535E-026
  0.17150000000000004         -1.9374487653771883E-026
  0.17260000000000003         -1.4313791402307972E-026
  0.17370000000000002          3.0874815647800943E-027
  0.17480000000000001          2.9534182272640409E-026
  0.17590000000000000          5.4077133432232995E-026
  0.17700000000000005          6.0334604610969118E-026
  0.17810000000000004          3.3337721815047115E-026
  0.17920000000000003         -3.0538181634541435E-026
  0.18030000000000002         -1.1481052366711494E-025
  0.18140000000000001         -1.8118770381857333E-025
  0.18250000000000000         -1.7983603824995082E-025
  0.18360000000000004         -7.2121578235274973E-026
  0.18470000000000003          1.4067520015941523E-025
  0.18580000000000002          3.9605424255415265E-025
  0.18690000000000001          5.7250998300676049E-025
  0.18800000000000000          5.2631756814660101E-025
  0.18910000000000005          1.6011493568545732E-025
  0.19020000000000004         -4.9861719971077837E-025
  0.19130000000000003         -1.2474172043970595E-024
  0.19240000000000002         -1.7285371860011808E-024
  0.19350000000000001         -1.5422161993872619E-024
  0.19460000000000005         -4.3842011190100722E-025
  0.19570000000000004          1.4768429899620145E-024
  0.19680000000000003          3.6218809753800789E-024
  0.19790000000000002          5.0088619698234594E-024
  0.19900000000000001          4.5539336871920563E-024
  0.20010000000000000          1.5795867712425977E-024
  0.20120000000000005         -3.6571196916390954E-024
  0.20230000000000004         -9.6615619198986791E-024
  0.20340000000000003         -1.3870563220723723E-023
  0.20450000000000002         -1.3413416935325718E-023
  0.20560000000000000         -6.3491334373787035E-024
  0.20670000000000005          7.0095967204883804E-024
  0.20780000000000004          2.3271748128207273E-023
  0.20890000000000003          3.6227073497318079E-023
  0.21000000000000002          3.8502383149167090E-023
  0.21110000000000001          2.4414197893944801E-023
  0.21220000000000000         -6.7950354463029448E-024
  0.21330000000000005         -4.8622781109534529E-023
  0.21440000000000003         -8.7238983419148228E-023
  0.21550000000000002         -1.0456767221045832E-022
  0.21660000000000001         -8.4372810671304353E-023
  0.21770000000000000         -1.9881188093216806E-023
  0.21880000000000005          7.9693530476442104E-023
  0.21990000000000004          1.8684577002405274E-022
  0.22100000000000003          2.6018935109185106E-022
  0.22210000000000002          2.5623052434536238E-022
  0.22320000000000001          1.4638677366230617E-022
  0.22430000000000000         -6.5751796049265856E-023
  0.22540000000000004         -3.3383454384395124E-022
  0.22650000000000003         -5.7158158900004616E-022
  0.22760000000000002         -6.7283040243129188E-022
  0.22870000000000001         -5.4700806153912957E-022
  0.22980000000000000         -1.6127624227751477E-022
  0.23090000000000005          4.2542378174207211E-022
  0.23200000000000004          1.0533998585579096E-021
  0.23310000000000003          1.4912214991806594E-021
  0.23420000000000002          1.5044949209050356E-021
  0.23530000000000001          9.4995806060020075E-022
  0.23640000000000000         -1.3580172719397341E-022
  0.23750000000000004         -1.4927680946186477E-021
  0.23860000000000003         -2.6736730826630758E-021
  0.23970000000000002         -3.1718270413838211E-021
  0.24080000000000001         -2.6156519846552158E-021
  0.24190000000000000         -9.6561309634162325E-022
  0.24300000000000005          1.3749116091940719E-021
  0.24410000000000004          3.6146662738090083E-021
  0.24520000000000003          4.8250134528940585E-021
  0.24630000000000002          4.3316752978434089E-021
  0.24740000000000001          2.1044732734596363E-021
  0.24850000000000005         -1.0500028147479606E-021
  0.24960000000000004         -3.6613026327163982E-021
  0.25070000000000003         -4.1788762735674700E-021
  0.25180000000000002         -1.8158918900274570E-021
  0.25290000000000001          2.6958135041014192E-021
  0.25400000000000000          6.8870057563282316E-021
  0.25510000000000005          7.2217210311386035E-021
  0.25620000000000004          6.9117035802962713E-022
  0.25730000000000003         -1.3110954213882701E-020
  0.25840000000000002         -3.0326841493217943E-020
  0.25950000000000001         -4.2671202194989034E-020
  0.26060000000000005         -3.9567077476259236E-020
  0.26170000000000004         -1.2567213788933468E-020
  0.26280000000000003          3.9114609386460172E-020
  0.26390000000000002          1.0421601790868572E-019
  0.26500000000000001          1.5886612933771595E-019
  0.26610000000000000          1.7184534166542293E-019
  0.26720000000000005          1.1572429917050222E-019
  0.26830000000000004         -1.8802937699935767E-020
  0.26940000000000003         -2.1065547942268929E-019
  0.27050000000000002         -4.0458234973997189E-019
  0.27160000000000001         -5.2091935701184343E-019
  0.27270000000000005         -4.7980283049484537E-019
  0.27380000000000004         -2.3469997420536124E-019
  0.27490000000000003          1.9580493660125824E-019
  0.27600000000000002          7.1212907227999101E-019
  0.27710000000000001          1.1458466334199083E-018
  0.27820000000000000          1.3040845143836157E-018
  0.27930000000000005          1.0381090775308513E-018
  0.28040000000000004          3.1544731793121911E-019
  0.28150000000000003         -7.3277932433118241E-019
  0.28260000000000002         -1.8156370748281271E-018
  0.28370000000000001         -2.5500685329249634E-018
  0.28480000000000005         -2.5827079388086482E-018
  0.28590000000000004         -1.7315082731697949E-018
  0.28700000000000003         -9.6104394275560066E-020
  0.28810000000000002          1.9142150813546919E-018
  0.28920000000000001          3.6652509109960220E-018
  0.29030000000000000          4.4876637042788769E-018
  0.29140000000000005          3.9204986710588112E-018
  0.29250000000000004          1.9247286276157144E-018
  0.29360000000000003         -1.0225538550626941E-018
  0.29470000000000002         -4.0134771068441021E-018
  0.29580000000000001         -5.9751988015973386E-018
  0.29690000000000005         -6.0459877059216121E-018
  0.29800000000000004         -3.9350179025901611E-018
  0.29910000000000003         -1.2338286344619656E-019
  0.30020000000000002          4.1979134315927019E-018
  0.30130000000000001          7.4707463296486409E-018
  0.30240000000000000          8.3036167217300926E-018
  0.30350000000000005          6.0178845490953678E-018
  0.30460000000000004          9.9742531977788073E-019
  0.30570000000000003         -5.3185101979046695E-018
  0.30680000000000002         -1.0839599783707481E-017
  0.30790000000000001         -1.3514045130538706E-017
  0.30900000000000005         -1.2065553151714119E-017
  0.31010000000000004         -6.4954304588572221E-018
  0.31120000000000003          1.8658110514703828E-018
  0.31230000000000002          1.0807635082791902E-017
  0.31340000000000001          1.8033848939207861E-017
  0.31450000000000006          2.1981829253461438E-017
  0.31560000000000005          2.2301057114038746E-017
  0.31670000000000004          1.9737788889666361E-017
  0.31780000000000003          1.5419808122667163E-017
  0.31890000000000002          9.8311837148769885E-018
  0.32000000000000001          1.9888371006387099E-018
  0.32110000000000005         -1.0630625445465169E-017
  0.32220000000000004         -3.1072912156811762E-017
  0.32330000000000003         -6.0875516447515803E-017
  0.32440000000000002         -9.7604666198322273E-017
  0.32550000000000001         -1.3294682398685184E-016
  0.32660000000000006         -1.5246213220636061E-016
  0.32770000000000005         -1.3783656976278047E-016
  0.32880000000000004         -7.1804093127841680E-017
  0.32990000000000003          5.4996184440935265E-017
  0.33100000000000002          2.3686627932727315E-016
  0.33210000000000001          4.4785208744561138E-016
  0.33320000000000005          6.4082308071039002E-016
  0.33430000000000004          7.5255631271610422E-016
  0.33540000000000003          7.1532554496018998E-016
  0.33650000000000002          4.7386148531826850E-016
  0.33760000000000001          4.8218435648161950E-018
  0.33870000000000006         -6.6548465297241613E-016
  0.33980000000000005         -1.4500883614277905E-015
  0.34090000000000004         -2.2017314756350063E-015
  0.34200000000000003         -2.7278549874895920E-015
  0.34310000000000002         -2.8209340257487895E-015
  0.34420000000000001         -2.3016188301623380E-015
  0.34530000000000005         -1.0685688042699701E-015
  0.34640000000000004          8.5422052333047076E-016
  0.34750000000000003          3.2836950988702662E-015
  0.34860000000000002          5.8686046007220467E-015
  0.34970000000000001          8.1134972675892248E-015
  0.35080000000000006          9.4394150993689049E-015
  0.35190000000000005          9.2780401650053922E-015
  0.35300000000000004          7.1883566183264077E-015
  0.35410000000000003          2.9781600785367974E-015
  0.35520000000000002         -3.1920071222986966E-015
  0.35630000000000001         -1.0745612157363593E-014
  0.35740000000000005         -1.8687467699144053E-014
  0.35850000000000004         -2.5673956910718692E-014
  0.35960000000000003         -3.0158278015963700E-014
  0.36070000000000002         -3.0601314477181034E-014
  0.36180000000000001         -2.5727957655370390E-014
  0.36290000000000006         -1.4799910728534984E-014
  0.36400000000000005          2.1297500079792495E-015
  0.36510000000000004          2.4018086900815305E-014
  0.36620000000000003          4.8727956403957999E-014
  0.36730000000000002          7.3053627241004919E-014
  0.36840000000000006          9.2906335361471253E-014
  0.36950000000000005          1.0368039038689451E-013
  0.37060000000000004          1.0080397219601427E-013
  0.37170000000000003          8.0454268673709859E-014
  0.37280000000000002          4.0383915980091255E-014
  0.37390000000000001         -1.9233007145199359E-014
  0.37500000000000006         -9.5064119074407731E-014
  0.37610000000000005         -1.8015095640850868E-013
  0.37720000000000004         -2.6387698496255255E-013
  0.37830000000000003         -3.3252051461987218E-013
  0.37940000000000002         -3.7048424511527319E-013
  0.38050000000000006         -3.6220380461616030E-013
  0.38160000000000005         -2.9461531698027625E-013
  0.38270000000000004         -1.5993320445782486E-013
  0.38380000000000003          4.1628664076836449E-014
  0.38490000000000002          2.9964608430432372E-013
  0.38600000000000001          5.9225442588109150E-013
  0.38710000000000000          8.8632036425681935E-013
  0.38819999999999999          1.1393109327865670E-012
  0.38930000000000009          1.3029700237953553E-012
  0.39040000000000008          1.3286612855626833E-012
  0.39150000000000007          1.1739728245276988E-012
  0.39260000000000006          8.0994558070702890E-013
  0.39370000000000005          2.2811211000295916E-013
  0.39480000000000004         -5.5357279214266693E-013
  0.39590000000000003         -1.4868232049124380E-012
  0.39700000000000002         -2.4919243160490699E-012
  0.39810000000000001         -3.4601002697943197E-012
  0.39920000000000000         -4.2597071960617113E-012
  0.40029999999999999         -4.7462919943995631E-012
  0.40140000000000009         -4.7761867133943985E-012
  0.40250000000000008         -4.2229834197992152E-012
  0.40360000000000007         -2.9959007885117027E-012
  0.40470000000000006         -1.0585232429130336E-012
  0.40580000000000005          1.5539015107334437E-012
  0.40690000000000004          4.7205680253684403E-012
  0.40800000000000003          8.2267961546670958E-012
  0.40910000000000002          1.1763485206716410E-011
  0.41020000000000001          1.4936424066326223E-011
  0.41130000000000000          1.7287484186134244E-011
  0.41239999999999999          1.8329252994877320E-011
  0.41350000000000009          1.7592568059687754E-011
  0.41460000000000008          1.4684423962542828E-011
  0.41570000000000007          9.3519048620244561E-012
  0.41680000000000006          1.5466049024254279E-012
  0.41790000000000005         -8.5160035239357571E-012
  0.41900000000000004         -2.0307885400651744E-011
  0.42010000000000003         -3.2956672112136746E-011
  0.42120000000000002         -4.5238764852465360E-011
  0.42230000000000001         -5.5606140993745116E-011
  0.42340000000000000         -6.2252571904641717E-011
  0.42449999999999999         -6.3222217922178115E-011
  0.42560000000000009         -5.6557104794035723E-011
  0.42670000000000008         -4.0475454260611755E-011
  0.42780000000000007         -1.3574325040828996E-011
  0.42890000000000006          2.4954966680170506E-011
  0.43000000000000005          7.5108206682971028E-011
  0.43110000000000004          1.3585205179900090E-010
  0.43220000000000003          2.0491680883651413E-010
  0.43330000000000002          2.7861174126366545E-010
  0.43440000000000001          3.5168588838652326E-010
  0.43550000000000000          4.1724507597953065E-010
  0.43659999999999999          4.6672673366380349E-010
  0.43770000000000009          4.8987732458932141E-010
  0.43880000000000008          4.7473246361123343E-010
  0.43990000000000007          4.0753261113751136E-010
  0.44100000000000006          2.7259989093191842E-010
  0.44210000000000005          5.2111465300067678E-011
  0.44320000000000004         -2.7427541190221786E-010
  0.44430000000000003         -7.3001775023761821E-010
  0.44540000000000002         -1.3425931256725489E-009
  0.44650000000000001         -2.1447126554947819E-009
  0.44760000000000000         -3.1759904211965835E-009
  0.44869999999999999         -4.4852143665967377E-009
  0.44980000000000009         -6.1330670103820325E-009
  0.45090000000000008         -8.1954245820515402E-009
  0.45200000000000007         -1.0767311947324976E-008
  0.45310000000000006         -1.3967420485572086E-008
  0.45420000000000005         -1.7943137860542535E-008
  0.45530000000000004         -2.2876412922838947E-008
  0.45640000000000003         -2.8990062258918990E-008
  0.45750000000000002         -3.6555218234906842E-008
  0.45860000000000001         -4.5900327823738035E-008
  0.45970000000000000         -5.7420386545648306E-008
  0.46079999999999999         -7.1587857991126939E-008
  0.46190000000000009         -8.8964609709436509E-008
  0.46300000000000008         -1.1021569374070131E-007
  0.46410000000000007         -1.3612498425421344E-007
  0.46520000000000006         -1.6761231582967291E-007
  0.46630000000000005         -2.0575385175978786E-007
  0.46740000000000004         -2.5180472712228828E-007
  0.46850000000000003         -3.0722463739950728E-007
  0.46960000000000002         -3.7370391690398070E-007
  0.47070000000000001         -4.5319684446588903E-007
  0.47180000000000000         -5.4795304622607174E-007
  0.47289999999999999         -6.6055391907252232E-007
  0.47400000000000009         -7.9395081597061752E-007
  0.47510000000000008         -9.5150158851069623E-007
  0.47620000000000007         -1.1370107843605191E-006
  0.47730000000000006         -1.3547742557945419E-006
  0.47840000000000005         -1.6096297577087231E-006