 -0.12000000000000000          0.0000000000000000     
 -0.11889999999999999          0.0000000000000000     
 -0.11780000000000000          0.0000000000000000     
 -0.11670000000000000          0.0000000000000000     
 -0.11559999999999999          0.0000000000000000     
 -0.11449999999999999          0.0000000000000000     
 -0.11340000000000000          0.0000000000000000     
 -0.11230000000000000          0.0000000000000000     
 -0.11119999999999999          0.0000000000000000     
 -0.11009999999999999          0.0000000000000000     
 -0.10900000000000000          0.0000000000000000     
 -0.10790000000000000          0.0000000000000000     
 -0.10679999999999999          0.0000000000000000     
 -0.10569999999999999          0.0000000000000000     
 -0.10460000000000000          0.0000000000000000     
 -0.10349999999999999          0.0000000000000000     
 -0.10239999999999999          0.0000000000000000     
 -0.10130000000000000          0.0000000000000000     
 -0.10020000000000000          0.0000000000000000     
  -9.9099999999999994E-002     0.0000000000000000     
  -9.7999999999999990E-002     0.0000000000000000     
  -9.6899999999999986E-002     0.0000000000000000     
  -9.5799999999999996E-002     0.0000000000000000     
  -9.4699999999999993E-002     0.0000000000000000     
  -9.3599999999999989E-002     0.0000000000000000     
  -9.2499999999999999E-002     0.0000000000000000     
  -9.1399999999999995E-002     0.0000000000000000     
  -9.0299999999999991E-002     0.0000000000000000     
  -8.9200000000000002E-002     0.0000000000000000     
  -8.8099999999999984E-002     0.0000000000000000     
  -8.6999999999999994E-002     0.0000000000000000     
  -8.5899999999999990E-002     0.0000000000000000     
  -8.4799999999999986E-002     0.0000000000000000     
  -8.3699999999999997E-002     0.0000000000000000     
  -8.2599999999999993E-002     0.0000000000000000     
  -8.1499999999999989E-002     0.0000000000000000     
  -8.0399999999999999E-002     0.0000000000000000     
  -7.9299999999999995E-002     0.0000000000000000     
  -7.8199999999999992E-002     0.0000000000000000     
  -7.7100000000000002E-002     0.0000000000000000     
  -7.5999999999999984E-002     0.0000000000000000     
  -7.4899999999999994E-002     0.0000000000000000     
  -7.3799999999999991E-002     0.0000000000000000     
  -7.2699999999999987E-002     0.0000000000000000     
  -7.1599999999999997E-002     0.0000000000000000     
  -7.0499999999999993E-002     0.0000000000000000     
  -6.9399999999999989E-002     0.0000000000000000     
  -6.8300000000000000E-002     0.0000000000000000     
  -6.7199999999999996E-002     0.0000000000000000     
  -6.6099999999999992E-002     0.0000000000000000     
  -6.5000000000000002E-002     0.0000000000000000     
  -6.3899999999999985E-002     0.0000000000000000     
  -6.2799999999999995E-002     0.0000000000000000     
  -6.1699999999999991E-002     0.0000000000000000     
  -6.0599999999999994E-002     0.0000000000000000     
  -5.9499999999999990E-002     0.0000000000000000     
  -5.8399999999999994E-002     0.0000000000000000     
  -5.7299999999999990E-002     0.0000000000000000     
  -5.6199999999999986E-002     0.0000000000000000     
  -5.5099999999999996E-002     0.0000000000000000     
  -5.3999999999999992E-002     0.0000000000000000     
  -5.2899999999999989E-002     0.0000000000000000     
  -5.1799999999999985E-002     0.0000000000000000     
  -5.0699999999999995E-002     0.0000000000000000     
  -4.9599999999999991E-002     0.0000000000000000     
  -4.8499999999999988E-002     0.0000000000000000     
  -4.7399999999999998E-002     0.0000000000000000     
  -4.6299999999999994E-002     0.0000000000000000     
  -4.5199999999999990E-002     0.0000000000000000     
  -4.4099999999999986E-002     0.0000000000000000     
  -4.2999999999999997E-002     0.0000000000000000     
  -4.1899999999999993E-002     0.0000000000000000     
  -4.0799999999999989E-002     0.0000000000000000     
  -3.9699999999999985E-002     0.0000000000000000     
  -3.8599999999999995E-002     0.0000000000000000     
  -3.7499999999999992E-002     0.0000000000000000     
  -3.6399999999999988E-002     0.0000000000000000     
  -3.5299999999999984E-002     0.0000000000000000     
  -3.4199999999999994E-002     0.0000000000000000     
  -3.3099999999999991E-002     0.0000000000000000     
  -3.1999999999999987E-002     0.0000000000000000     
  -3.0899999999999997E-002     0.0000000000000000     
  -2.9799999999999993E-002     0.0000000000000000     
  -2.8699999999999989E-002     0.0000000000000000     
  -2.7599999999999986E-002     0.0000000000000000     
  -2.6499999999999996E-002     0.0000000000000000     
  -2.5399999999999992E-002     0.0000000000000000     
  -2.4299999999999988E-002     0.0000000000000000     
  -2.3199999999999985E-002     0.0000000000000000     
  -2.2099999999999995E-002     0.0000000000000000     
  -2.0999999999999991E-002     0.0000000000000000     
  -1.9899999999999987E-002     0.0000000000000000     
  -1.8799999999999983E-002     0.0000000000000000     
  -1.7699999999999994E-002     0.0000000000000000     
  -1.6599999999999990E-002     0.0000000000000000     
  -1.5499999999999986E-002     0.0000000000000000     
  -1.4399999999999996E-002     0.0000000000000000     
  -1.3299999999999992E-002     0.0000000000000000     
  -1.2199999999999989E-002     0.0000000000000000     
  -1.1099999999999985E-002     0.0000000000000000     
  -9.9999999999999950E-003     0.0000000000000000     
  -8.8999999999999913E-003     0.0000000000000000     
  -7.7999999999999875E-003     0.0000000000000000     
  -6.6999999999999837E-003     0.0000000000000000     
  -5.5999999999999939E-003     0.0000000000000000     
  -4.4999999999999901E-003     0.0000000000000000     
  -3.3999999999999864E-003     0.0000000000000000     
  -2.2999999999999826E-003     0.0000000000000000     
  -1.1999999999999927E-003     0.0000000000000000     
  -9.9999999999988987E-005     0.0000000000000000     
   1.0000000000000148E-003     0.0000000000000000     
   2.1000000000000185E-003     0.0000000000000000     
   3.2000000000000084E-003     0.0000000000000000     
   4.3000000000000121E-003     0.0000000000000000     
   5.4000000000000159E-003     0.0000000000000000     
   6.5000000000000058E-003     0.0000000000000000     
   7.6000000000000234E-003     0.0000000000000000     
   8.7000000000000133E-003     0.0000000000000000     
   9.8000000000000032E-003     0.0000000000000000     
   1.0900000000000021E-002     0.0000000000000000     
   1.2000000000000011E-002     0.0000000000000000     
   1.3100000000000001E-002     0.0000000000000000     
   1.4200000000000018E-002     0.0000000000000000     
   1.5300000000000008E-002     0.0000000000000000     
   1.6400000000000026E-002     0.0000000000000000     
   1.7500000000000016E-002     0.0000000000000000     
   1.8600000000000005E-002     0.0000000000000000     
   1.9700000000000023E-002     0.0000000000000000     
   2.0800000000000013E-002     0.0000000000000000     
   2.1900000000000003E-002     0.0000000000000000     
   2.3000000000000020E-002     0.0000000000000000     
   2.4100000000000010E-002     0.0000000000000000     
   2.5200000000000000E-002     0.0000000000000000     
   2.6300000000000018E-002     0.0000000000000000     
   2.7400000000000008E-002     0.0000000000000000     
   2.8500000000000025E-002     0.0000000000000000     
   2.9600000000000015E-002     0.0000000000000000     
   3.0700000000000005E-002     0.0000000000000000     
   3.1800000000000023E-002     0.0000000000000000     
   3.2900000000000013E-002     0.0000000000000000     
   3.4000000000000002E-002     0.0000000000000000     
   3.5100000000000020E-002     0.0000000000000000     
   3.6200000000000010E-002     0.0000000000000000     
   3.7300000000000028E-002     0.0000000000000000     
   3.8400000000000017E-002     0.0000000000000000     
   3.9500000000000007E-002     0.0000000000000000     
   4.0600000000000025E-002     0.0000000000000000     
   4.1700000000000015E-002     0.0000000000000000     
   4.2800000000000005E-002     0.0000000000000000     
   4.3900000000000022E-002     0.0000000000000000     
   4.5000000000000012E-002     0.0000000000000000     
   4.6100000000000002E-002     0.0000000000000000     
   4.7200000000000020E-002     0.0000000000000000     
   4.8300000000000010E-002     0.0000000000000000     
   4.9400000000000027E-002     0.0000000000000000     
   5.0500000000000017E-002     0.0000000000000000     
   5.1600000000000007E-002     0.0000000000000000     
   5.2700000000000025E-002     0.0000000000000000     
   5.3800000000000014E-002     0.0000000000000000     
   5.4900000000000004E-002     0.0000000000000000     
   5.6000000000000022E-002     0.0000000000000000     
   5.7100000000000012E-002     0.0000000000000000     
   5.8200000000000002E-002     0.0000000000000000     
   5.9300000000000019E-002     0.0000000000000000     
   6.0400000000000009E-002     0.0000000000000000     
   6.1500000000000027E-002     0.0000000000000000     
   6.2600000000000017E-002     0.0000000000000000     
   6.3700000000000007E-002     0.0000000000000000     
   6.4800000000000024E-002     0.0000000000000000     
   6.5900000000000014E-002     0.0000000000000000     
   6.7000000000000004E-002     0.0000000000000000     
   6.8100000000000022E-002     0.0000000000000000     
   6.9200000000000012E-002     0.0000000000000000     
   7.0300000000000029E-002     0.0000000000000000     
   7.1400000000000019E-002     0.0000000000000000     
   7.2500000000000009E-002     0.0000000000000000     
   7.3600000000000027E-002     0.0000000000000000     
   7.4700000000000016E-002     0.0000000000000000     
   7.5800000000000006E-002     0.0000000000000000     
   7.6900000000000024E-002     0.0000000000000000     
   7.8000000000000014E-002     0.0000000000000000     
   7.9100000000000004E-002     0.0000000000000000     
   8.0200000000000021E-002     0.0000000000000000     
   8.1300000000000011E-002     0.0000000000000000     
   8.2400000000000029E-002     0.0000000000000000     
   8.3500000000000019E-002     0.0000000000000000     
   8.4600000000000009E-002     0.0000000000000000     
   8.5700000000000026E-002     0.0000000000000000     
   8.6800000000000016E-002     0.0000000000000000     
   8.7900000000000006E-002     0.0000000000000000     
   8.9000000000000024E-002     0.0000000000000000     
   9.0100000000000013E-002     0.0000000000000000     
   9.1200000000000003E-002     0.0000000000000000     
   9.2300000000000021E-002     0.0000000000000000     
   9.3400000000000011E-002     0.0000000000000000     
   9.4500000000000028E-002     0.0000000000000000     
   9.5600000000000018E-002     0.0000000000000000     
   9.6700000000000008E-002     0.0000000000000000     
   9.7800000000000026E-002     0.0000000000000000     
   9.8900000000000016E-002     0.0000000000000000     
  0.10000000000000001          0.0000000000000000     
  0.10110000000000002          0.0000000000000000     
  0.10220000000000001          0.0000000000000000     
  0.10330000000000003          0.0000000000000000     
  0.10440000000000002          0.0000000000000000     
  0.10550000000000001          0.0000000000000000     
  0.10660000000000003          0.0000000000000000     
  0.10770000000000002          0.0000000000000000     
  0.10880000000000001          0.0000000000000000     
  0.10990000000000003          0.0000000000000000     
  0.11100000000000002          0.0000000000000000     
  0.11210000000000001          0.0000000000000000     
  0.11320000000000002          0.0000000000000000     
  0.11430000000000001          0.0000000000000000     
  0.11540000000000003          0.0000000000000000     
  0.11650000000000002          0.0000000000000000     
  0.11760000000000001          0.0000000000000000     
  0.11870000000000003          0.0000000000000000     
  0.11980000000000002          0.0000000000000000     
  0.12090000000000001          0.0000000000000000     
  0.12200000000000003          0.0000000000000000     
  0.12310000000000001         -9.2459507403419149E-055
  0.12420000000000003         -1.8491901480683830E-054
  0.12530000000000002          9.7202720763281301E-054
  0.12640000000000001          2.3138924448793026E-053
  0.12750000000000003          2.5912709670895601E-053
  0.12860000000000002          2.9611089967032367E-053
  0.12970000000000001         -2.8025969287917087E-045
  0.13080000000000003         -5.6051939007792831E-045
  0.13190000000000002         -5.6051939219028953E-045
  0.13300000000000001         -4.4428659216243815E-053
  0.13410000000000000          7.0064923542690614E-045
  0.13520000000000004          1.4012984814654548E-044
  0.13630000000000003          1.9618178780085554E-044
  0.13740000000000002          1.8216880286411966E-044
  0.13850000000000001          5.6051938503091170E-045
  0.13960000000000000         -1.4012985136459502E-044
  0.14070000000000005         -3.9236358018201949E-044
  0.14180000000000004         -5.8854536740422791E-044
  0.14290000000000003         -6.1657133171052378E-044
  0.14400000000000002         -3.6433759417419029E-044
  0.14510000000000001          1.6815584252609236E-044
  0.14620000000000000          9.2485703009032907E-044
  0.14730000000000004          1.7095841691179517E-043
  0.14840000000000003          2.2140515851616521E-043
  0.14950000000000002          2.0318827222173877E-043
  0.15060000000000001          7.0064910704952703E-044
  0.15170000000000000         -2.0458959260070259E-043
  0.15280000000000005         -5.8994666628791997E-043
  0.15390000000000004         -9.7950762374443852E-043
  0.15500000000000003         -1.1504660114498961E-042
  0.15610000000000002         -8.0014137136913677E-043
  0.15720000000000001          3.3771298786740154E-043
  0.15830000000000000          2.2757087358596088E-042
  0.15940000000000004          4.5023719282959411E-042
  0.16050000000000003          5.8378092763939795E-042
  0.16160000000000002          4.6116730552363939E-042
  0.16270000000000001         -6.2077539307486325E-043
  0.16380000000000000         -9.8721477117272713E-042
  0.16490000000000005         -2.0451950861053615E-041
  0.16600000000000004         -2.6477533982425703E-041
  0.16710000000000003         -2.0233347899364167E-041
  0.16820000000000002          4.0707724653956195E-042
  0.16930000000000001          4.4785498744001989E-041
  0.17040000000000000          8.8014154206114276E-041
  0.17150000000000004          1.0742213720979935E-040
  0.17260000000000003          7.2368656087930282E-041
  0.17370000000000002         -3.4848892217000151E-041
  0.17480000000000001         -1.9761671313755374E-040
  0.17590000000000000         -3.5092717037269294E-040
  0.17700000000000005         -3.8946287667108223E-040
  0.17810000000000004         -2.0821332928690829E-040
  0.17920000000000003          2.2863305455668557E-040
  0.18030000000000002          8.1679724932298636E-040
  0.18140000000000001          1.2845618807079596E-039
  0.18250000000000000          1.2564027868071620E-039
  0.18360000000000004          4.2627358408855839E-040
  0.18470000000000003         -1.2008188879649559E-039
  0.18580000000000002         -3.1121409281462247E-039
  0.18690000000000001         -4.2918030086436392E-039
  0.18800000000000000         -3.5507459411091426E-039
  0.18910000000000005         -1.7252646427513857E-040
  0.19020000000000004          5.3452431339490453E-039
  0.19130000000000003          1.0870324712124089E-038
  0.19240000000000002          1.2998021258395084E-038
  0.19350000000000001          8.4319028763911517E-039
  0.19460000000000005         -3.8932204560376435E-039
  0.19570000000000004         -2.0857692659210310E-038
  0.19680000000000003         -3.4704386537174712E-038
  0.19790000000000002         -3.5229321406551316E-038
  0.19900000000000001         -1.4732124019012752E-038
  0.20010000000000000          2.5834702479256496E-038
  0.20120000000000005          7.2702788468938746E-038
  0.20230000000000004          1.0080221379554397E-037
  0.20340000000000003          8.3095597367237879E-038
  0.20450000000000002          6.1348865799410183E-039
  0.20560000000000000         -1.1450298844903460E-037
  0.20670000000000005         -2.2854072432232565E-037
  0.20780000000000004         -2.6372105146175679E-037
  0.20890000000000003         -1.5862643721006335E-037
  0.21000000000000002          9.4298415754020653E-038
  0.21110000000000001          4.1682920552859287E-037
  0.21220000000000000          6.4944354003945087E-037
  0.21330000000000005          6.0778045092362699E-037
  0.21440000000000003          1.8238496312158901E-037
  0.21550000000000002         -5.5797838486925011E-037
  0.21660000000000001         -1.3209936024511140E-036
  0.21770000000000000         -1.6595508131898508E-036
  0.21880000000000005         -1.1679688659064005E-036
  0.21990000000000004          2.5267131392913300E-037
  0.22100000000000003          2.1888444942826023E-036
  0.22210000000000002          3.7223003378289970E-036
  0.22320000000000001          3.7474112675892711E-036
  0.22430000000000000          1.5506671326763755E-036
  0.22540000000000004         -2.5773229583003853E-036
  0.22650000000000003         -7.0536662724354813E-036
  0.22760000000000002         -9.3630119072844493E-036
  0.22870000000000001         -7.1446774984716621E-036
  0.22980000000000000          3.1896548301736129E-037
  0.23090000000000005          1.0930477240749205E-035
  0.23200000000000004          1.9771971206552416E-035
  0.23310000000000003          2.0792785999984385E-035
  0.23420000000000002          9.9285236126940709E-036
  0.23530000000000001         -1.1590575533870489E-035
  0.23640000000000000         -3.5646980499913529E-035
  0.23750000000000004         -4.9068170156189305E-035
  0.23860000000000003         -3.9280280234189665E-035
  0.23970000000000002         -2.0565011992139210E-036
  0.24080000000000001          5.2369885132843217E-035
  0.24190000000000000          9.9183069422377490E-035
  0.24300000000000005          1.0748776538876410E-034
  0.24410000000000004          5.6041039444753403E-035
  0.24520000000000003         -5.0088340445817076E-035
  0.24630000000000002         -1.7144197982540759E-034
  0.24740000000000001         -2.4306481660923057E-034
  0.24850000000000005         -2.0217538526958892E-034
  0.24960000000000004         -2.6032647971410895E-035
  0.25070000000000003          2.3816045372621019E-034
  0.25180000000000002          4.7222316612300473E-034
  0.25290000000000001          5.2723414588829592E-034
  0.25400000000000000          2.9815884016491226E-034
  0.25510000000000005         -1.9702698760331132E-034
  0.25620000000000004         -7.7826458279447174E-034
  0.25730000000000003         -1.1432628343768145E-033
  0.25840000000000002         -9.9441201294352872E-034
  0.25950000000000001         -2.1325899761855221E-034
  0.26060000000000005          1.0002242633310784E-033
  0.26170000000000004          2.1182191178222181E-033
  0.26280000000000003          2.4614945158645435E-033
  0.26390000000000002          1.5316025585374141E-033
  0.26500000000000001         -6.3297520833427582E-034
  0.26610000000000000         -3.2727529086092310E-033
  0.26720000000000005         -5.0665716105844784E-033
  0.26830000000000004         -4.6728280503123436E-033
  0.26940000000000003         -1.4862822233800239E-033
  0.27050000000000002          3.7415084344473484E-033
  0.27160000000000001          8.8227094608536807E-033
  0.27270000000000005          1.0839787252950218E-032
  0.27380000000000004          7.5254023995907467E-033
  0.27490000000000003         -1.2208755005149267E-033
  0.27600000000000002         -1.2487418807782602E-032
  0.27710000000000001         -2.0896101609172317E-032
  0.27820000000000000         -2.0729350470002087E-032
  0.27930000000000005         -9.0057436372501902E-033
  0.28040000000000004          1.1885743421012589E-032
  0.28150000000000003          3.3622505759841684E-032
  0.28260000000000002          4.4493586256406722E-032
  0.28370000000000001          3.4712392058391658E-032
  0.28480000000000005          2.4949750669863160E-033
  0.28590000000000004         -4.2208228092411853E-032
  0.28700000000000003         -7.9191572350388185E-032
  0.28810000000000002         -8.5625752547914567E-032
  0.28920000000000001         -4.7694766311566502E-032
  0.29030000000000000          2.8833315130592678E-032
  0.29140000000000005          1.1526061668892970E-031
  0.29250000000000004          1.6804517943330682E-031
  0.29360000000000003          1.4762297590861331E-031
  0.29470000000000002          4.1168483951665740E-032
  0.29580000000000001         -1.2183849441071064E-031
  0.29690000000000005         -2.7199932730818611E-031
  0.29800000000000004         -3.2473315619747862E-031
  0.29910000000000003         -2.2100570287915722E-031
  0.30020000000000002          3.2958314532969231E-032
  0.30130000000000001          3.4870919518679342E-031
  0.30240000000000000          5.7749084007490710E-031
  0.30350000000000005          5.7116498954717503E-031
  0.30460000000000004          2.6132903948558942E-031
  0.30570000000000003         -2.8021203332424283E-031
  0.30680000000000002         -8.3748535978928977E-031
  0.30790000000000001         -1.1218001094730894E-030
  0.30900000000000005         -9.0285056220642883E-031
  0.31010000000000004         -1.4735130115694668E-031
  0.31120000000000003          9.0604347762543984E-031
  0.31230000000000002          1.7935216768553465E-030
  0.31340000000000001          2.0047506801543477E-030
  0.31450000000000006          1.2367525556346961E-030
  0.31560000000000005         -3.8921333502195037E-031
  0.31670000000000004         -2.2718952045757539E-030
  0.31780000000000003         -3.5093712056504098E-030
  0.31890000000000002         -3.2845034749776217E-030
  0.32000000000000001         -1.3118155902427447E-030
  0.32110000000000005          1.8702599985215548E-030
  0.32220000000000004          4.9553180056121004E-030
  0.32330000000000003          6.3371392660302721E-030
  0.32440000000000002          4.8569011411349647E-030
  0.32550000000000001          5.1652212275359716E-031
  0.32660000000000006         -5.2189634970807528E-030
  0.32770000000000005         -9.7923673731875234E-030
  0.32880000000000004         -1.0581031195778489E-029
  0.32990000000000003         -6.2193291991297388E-030
  0.33100000000000002          2.3863040385410979E-030
  0.33210000000000001          1.1946933731875427E-029
  0.33320000000000005          1.7867787794896200E-029
  0.33430000000000004          1.6256909968288028E-029
  0.33540000000000003          6.0715934907613258E-030
  0.33650000000000002         -9.6560302495346884E-030
  0.33760000000000001         -2.4360715918323287E-029
  0.33870000000000006         -3.0404676812970752E-029
  0.33980000000000005         -2.2670371026507542E-029
  0.34090000000000004         -1.7378583304779793E-030
  0.34200000000000003          2.5055878727433258E-029
  0.34310000000000002          4.5706897160027792E-029
  0.34420000000000001          4.8465728721146863E-029
  0.34530000000000005          2.7772821532614165E-029
  0.34640000000000004         -1.1536512578309333E-029
  0.34750000000000003         -5.4258441159524743E-029
  0.34860000000000002         -8.0023826773777952E-029
  0.34970000000000001         -7.2245700198935007E-029
  0.35080000000000006         -2.7188512609730399E-029
  0.35190000000000005          4.1325439333303278E-029
  0.35300000000000004          1.0486914711593300E-028
  0.35410000000000003          1.3123069845193130E-028
  0.35520000000000002          9.9446710117898972E-029
  0.35630000000000001          1.2523144045309291E-029
  0.35740000000000005         -9.8928904798861143E-029
  0.35850000000000004         -1.8585778651800392E-028
  0.35960000000000003         -2.0091422568903416E-028
  0.36070000000000002         -1.2195855022286258E-028
  0.36180000000000001          3.1915733338085076E-029
  0.36290000000000006          2.0124428086093767E-028
  0.36400000000000005          3.0697250182931081E-028
  0.36510000000000004          2.8503264591961417E-028
  0.36620000000000003          1.2059691815232978E-028
  0.36730000000000002         -1.3479566551971636E-028
  0.36840000000000006         -3.7503096458658574E-028
  0.36950000000000005         -4.8015156696670466E-028
  0.37060000000000004         -3.7194244885531294E-028
  0.37170000000000003         -6.0272038641174067E-029
  0.37280000000000002          3.4414513881447351E-028
  0.37390000000000001          6.6335069101490241E-028
  0.37500000000000006          7.2491000881308845E-028
  0.37610000000000005          4.4630383149797185E-028
  0.37720000000000004         -1.0750771774423100E-028
  0.37830000000000003         -7.2622382858598880E-028
  0.37940000000000002         -1.1264512792635843E-027
  0.38050000000000006         -1.0727897694073897E-027
  0.38160000000000005         -4.9911740536856058E-028
  0.38270000000000004          4.2768263748055114E-028
  0.38380000000000003          1.3425017124846121E-027
  0.38490000000000002          1.8168462184548498E-027
  0.38600000000000001          1.5480889593191124E-027
  0.38710000000000000          5.2356131112885568E-028
  0.38819999999999999         -9.2222932521134399E-028
  0.38930000000000009         -2.2027871654545408E-027
  0.39040000000000008         -2.7087672878712979E-027
  0.39150000000000007         -2.0863876300460848E-027
  0.39260000000000006         -4.4293620884879426E-028
  0.39370000000000005          1.6289963949922474E-027
  0.39480000000000004          3.2497163142923114E-027
  0.39590000000000003          3.6164507435587604E-027
  0.39700000000000002          2.3893341001223421E-027
  0.39810000000000001         -7.8358968985499276E-029
  0.39920000000000000         -2.7991729211233590E-027
  0.40029999999999999         -4.5186984388109868E-027
  0.40140000000000009         -4.2681130101408892E-027
  0.40250000000000008         -1.8716608888158191E-027
  0.40360000000000007          1.8379694145716339E-027
  0.40470000000000006          5.2467692766239009E-027
  0.40580000000000005          6.5963854753922035E-027
  0.40690000000000004          4.8005482710154553E-027
  0.40800000000000003          8.8087812229053895E-029
  0.40910000000000002         -5.8583329378192009E-027
  0.41020000000000001         -1.0419266263209145E-026
  0.41130000000000000         -1.1084245187540285E-026
  0.41239999999999999         -6.6345481817386606E-027
  0.41350000000000009          2.0553747655771944E-027
  0.41460000000000008          1.2025323137801457E-026
  0.41570000000000007          1.9173405922396047E-026
  0.41680000000000006          1.9861512974550375E-026
  0.41790000000000005          1.2569007817575115E-026
  0.41900000000000004         -1.1288605637728980E-027
  0.42010000000000003         -1.6781762982573263E-026
  0.42120000000000002         -2.8546728190272664E-026
  0.42230000000000001         -3.1444226687569848E-026
  0.42340000000000000         -2.3497785950938500E-026
  0.42449999999999999         -6.8139411077823329E-027
  0.42560000000000009          1.2976778538323319E-026
  0.42670000000000008          2.8829226559859304E-026
  0.42780000000000007          3.5150036347014976E-026
  0.42890000000000006          3.0203176152572173E-026
  0.43000000000000005          1.6922356421351592E-026
  0.43110000000000004          1.6167636825982326E-027
  0.43220000000000003         -9.0105497437930921E-027
  0.43330000000000002         -1.1260480674060013E-026
  0.43440000000000001         -6.6191077958949431E-027
  0.43550000000000000         -1.4566018064267473E-027
  0.43659999999999999         -4.0049918618372316E-027
  0.43770000000000009         -1.9677641652667534E-026
  0.43880000000000008         -4.6799343367358976E-026
  0.43990000000000007         -7.5008635956480534E-026
  0.44100000000000006         -8.7752085460360972E-026
  0.44210000000000005         -6.8634219651377295E-026
  0.44320000000000004         -9.5413392764568739E-027
  0.44430000000000003          8.2773339261135373E-026
  0.44540000000000002          1.8492391123367925E-025
  0.44650000000000001          2.6174974308643979E-025
  0.44760000000000000          2.7711088593895156E-025
  0.44869999999999999          2.0735731462395084E-025
  0.44980000000000009          5.2629397074880506E-026
  0.45090000000000008         -1.5864966607532527E-025
  0.45200000000000007         -3.7462883656201762E-025
  0.45310000000000006         -5.3345688358083164E-025
  0.45420000000000005         -5.8123587181429027E-025
  0.45530000000000004         -4.8856852961120387E-025
  0.45640000000000003         -2.6012432151240531E-025
  0.45750000000000002          6.5802289050642156E-026
  0.45860000000000001          4.2702362211948834E-025
  0.45970000000000000          7.5240355368982989E-025
  0.46079999999999999          9.7644483571475815E-025
  0.46190000000000009          1.0490207308802920E-024
  0.46300000000000008          9.3891744207936840E-025
  0.46410000000000007          6.3356447023437024E-025
  0.46520000000000006          1.3963238626058739E-025
  0.46630000000000005         -5.1143105391842699E-025
  0.46740000000000004         -1.2525401437205966E-024
  0.46850000000000003         -1.9697565084534276E-024
  0.46960000000000002         -2.5001157816739656E-024
  0.47070000000000001         -2.6486139133343563E-024
  0.47180000000000000         -2.2299178946296466E-024
  0.47289999999999999         -1.1310343474758935E-024
  0.47400000000000009          6.2002072554707910E-025
  0.47510000000000008          2.8031651874828851E-024
  0.47620000000000007          4.9981919616785903E-024
  0.47730000000000006          6.6375372200582859E-024
  0.47840000000000005          7.1215727991586895E-024