 -0.12000000000000000          0.0000000000000000     
 -0.11889999999999999          0.0000000000000000     
 -0.11780000000000000          0.0000000000000000     
 -0.11670000000000000          0.0000000000000000     
 -0.11559999999999999          0.0000000000000000     
 -0.11449999999999999          0.0000000000000000     
 -0.11340000000000000          0.0000000000000000     
 -0.11230000000000000          0.0000000000000000     
 -0.11119999999999999          0.0000000000000000     
 -0.11009999999999999          0.0000000000000000     
 -0.10900000000000000          0.0000000000000000     
 -0.10790000000000000          0.0000000000000000     
 -0.10679999999999999          0.0000000000000000     
 -0.10569999999999999          0.0000000000000000     
 -0.10460000000000000          0.0000000000000000     
 -0.10349999999999999          0.0000000000000000     
 -0.10239999999999999          0.0000000000000000     
 -0.10130000000000000          0.0000000000000000     
 -0.10020000000000000          0.0000000000000000     
  -9.9099999999999994E-002     0.0000000000000000     
  -9.7999999999999990E-002     0.0000000000000000     
  -9.6899999999999986E-002     0.0000000000000000     
  -9.5799999999999996E-002     0.0000000000000000     
  -9.4699999999999993E-002     0.0000000000000000     
  -9.3599999999999989E-002     0.0000000000000000     
  -9.2499999999999999E-002     0.0000000000000000     
  -9.1399999999999995E-002     0.0000000000000000     
  -9.0299999999999991E-002     0.0000000000000000     
  -8.9200000000000002E-002     0.0000000000000000     
  -8.8099999999999984E-002     0.0000000000000000     
  -8.6999999999999994E-002     0.0000000000000000     
  -8.5899999999999990E-002     0.0000000000000000     
  -8.4799999999999986E-002     0.0000000000000000     
  -8.3699999999999997E-002     0.0000000000000000     
  -8.2599999999999993E-002     0.0000000000000000     
  -8.1499999999999989E-002     0.0000000000000000     
  -8.0399999999999999E-002     0.0000000000000000     
  -7.9299999999999995E-002     0.0000000000000000     
  -7.8199999999999992E-002     0.0000000000000000     
  -7.7100000000000002E-002     0.0000000000000000     
  -7.5999999999999984E-002     0.0000000000000000     
  -7.4899999999999994E-002     0.0000000000000000     
  -7.3799999999999991E-002     0.0000000000000000     
  -7.2699999999999987E-002     0.0000000000000000     
  -7.1599999999999997E-002     0.0000000000000000     
  -7.0499999999999993E-002     0.0000000000000000     
  -6.9399999999999989E-002     0.0000000000000000     
  -6.8300000000000000E-002     0.0000000000000000     
  -6.7199999999999996E-002     0.0000000000000000     
  -6.6099999999999992E-002     0.0000000000000000     
  -6.5000000000000002E-002     0.0000000000000000     
  -6.3899999999999985E-002     0.0000000000000000     
  -6.2799999999999995E-002     0.0000000000000000     
  -6.1699999999999991E-002     0.0000000000000000     
  -6.0599999999999994E-002     0.0000000000000000     
  -5.9499999999999990E-002     0.0000000000000000     
  -5.8399999999999994E-002     0.0000000000000000     
  -5.7299999999999990E-002     0.0000000000000000     
  -5.6199999999999986E-002     0.0000000000000000     
  -5.5099999999999996E-002     0.0000000000000000     
  -5.3999999999999992E-002     0.0000000000000000     
  -5.2899999999999989E-002     0.0000000000000000     
  -5.1799999999999985E-002     0.0000000000000000     
  -5.0699999999999995E-002     0.0000000000000000     
  -4.9599999999999991E-002     0.0000000000000000     
  -4.8499999999999988E-002     0.0000000000000000     
  -4.7399999999999998E-002     0.0000000000000000     
  -4.6299999999999994E-002     0.0000000000000000     
  -4.5199999999999990E-002     0.0000000000000000     
  -4.4099999999999986E-002     0.0000000000000000     
  -4.2999999999999997E-002     0.0000000000000000     
  -4.1899999999999993E-002     0.0000000000000000     
  -4.0799999999999989E-002     0.0000000000000000     
  -3.9699999999999985E-002     0.0000000000000000     
  -3.8599999999999995E-002     0.0000000000000000     
  -3.7499999999999992E-002     0.0000000000000000     
  -3.6399999999999988E-002     0.0000000000000000     
  -3.5299999999999984E-002     0.0000000000000000     
  -3.4199999999999994E-002     0.0000000000000000     
  -3.3099999999999991E-002     0.0000000000000000     
  -3.1999999999999987E-002     0.0000000000000000     
  -3.0899999999999997E-002     0.0000000000000000     
  -2.9799999999999993E-002     0.0000000000000000     
  -2.8699999999999989E-002     0.0000000000000000     
  -2.7599999999999986E-002     0.0000000000000000     
  -2.6499999999999996E-002     0.0000000000000000     
  -2.5399999999999992E-002     0.0000000000000000     
  -2.4299999999999988E-002     0.0000000000000000     
  -2.3199999999999985E-002     0.0000000000000000     
  -2.2099999999999995E-002     0.0000000000000000     
  -2.0999999999999991E-002     0.0000000000000000     
  -1.9899999999999987E-002     0.0000000000000000     
  -1.8799999999999983E-002     0.0000000000000000     
  -1.7699999999999994E-002     0.0000000000000000     
  -1.6599999999999990E-002     0.0000000000000000     
  -1.5499999999999986E-002     0.0000000000000000     
  -1.4399999999999996E-002     0.0000000000000000     
  -1.3299999999999992E-002     0.0000000000000000     
  -1.2199999999999989E-002     0.0000000000000000     
  -1.1099999999999985E-002     0.0000000000000000     
  -9.9999999999999950E-003     0.0000000000000000     
  -8.8999999999999913E-003     0.0000000000000000     
  -7.7999999999999875E-003     0.0000000000000000     
  -6.6999999999999837E-003     0.0000000000000000     
  -5.5999999999999939E-003     0.0000000000000000     
  -4.4999999999999901E-003     0.0000000000000000     
  -3.3999999999999864E-003     0.0000000000000000     
  -2.2999999999999826E-003     0.0000000000000000     
  -1.1999999999999927E-003     0.0000000000000000     
  -9.9999999999988987E-005     0.0000000000000000     
   1.0000000000000148E-003     1.1524102915921544E-061
   2.1000000000000185E-003     5.5549957812964837E-061
   3.2000000000000084E-003     7.6527606878165042E-061
   4.3000000000000121E-003     1.3591892985696629E-060
   5.4000000000000159E-003    -1.7299981169941961E-046
   6.5000000000000058E-003    -3.4599962339883833E-046
   7.6000000000000234E-003     1.7299981169942134E-046
   8.7000000000000133E-003     1.0379988701965182E-045
   9.8000000000000032E-003     1.2109986818959268E-045
   1.0900000000000021E-002    -1.3565151013917020E-045
   1.2000000000000011E-002    -4.7890279431763944E-045
   1.3100000000000001E-002    -5.7995434211691827E-045
   1.4200000000000018E-002     1.0654822624002965E-045
   1.5300000000000008E-002     1.1882020222852657E-044
   1.6400000000000026E-002     1.4737866997797809E-044
   1.7500000000000016E-002    -3.7483298103169334E-046
   1.8600000000000005E-002    -2.9510333999698004E-044
   1.9700000000000023E-002    -4.7946347155100366E-044
   2.0800000000000013E-002    -2.4843139786551495E-044
   2.1900000000000003E-002     4.9874993549942319E-044
   2.3000000000000020E-002     1.3279503462764605E-043
   2.4100000000000010E-002     1.3946067773302455E-043
   2.5200000000000000E-002     1.0642497628881438E-045
   2.6300000000000018E-002    -2.5910957525373309E-043
   2.7400000000000008E-002    -4.7958447754877075E-043
   2.8500000000000025E-002    -4.1338958495502681E-043
   2.9600000000000015E-002     1.2489435762786456E-043
   3.0700000000000005E-002     1.0536013725897555E-042
   3.1800000000000023E-002     1.8298133255666952E-042
   3.2900000000000013E-002     1.4899246996763421E-042
   3.4000000000000002E-002    -8.3257478205977242E-043
   3.5100000000000020E-002    -4.8054501917042402E-042
   3.6200000000000010E-002    -7.7718994500735808E-042
   3.7300000000000028E-002    -5.0820228028118400E-042
   3.8400000000000017E-002     6.5850937376417167E-042
   3.9500000000000007E-002     2.3453567668470581E-041
   4.0600000000000025E-002     3.1089065553242575E-041
   4.1700000000000015E-002     1.0298269726333357E-041
   4.2800000000000005E-002    -4.4388810079963688E-041
   4.3900000000000022E-002    -1.0347744739512570E-040
   4.5000000000000012E-002    -1.0220866070720300E-040
   4.6100000000000002E-002     1.7277281853361226E-041
   4.7200000000000020E-002     2.3112738435097746E-040
   4.8300000000000010E-002     3.8491827106414715E-040
   4.9400000000000027E-002     2.5194043122781965E-040
   5.0500000000000017E-002    -2.7423259329132040E-040
   5.1600000000000007E-002    -9.5768437471239967E-040
   5.2700000000000025E-002    -1.1938836936108942E-039
   5.3800000000000014E-002    -3.6646162928067617E-040
   5.4900000000000004E-002     1.5024228891698724E-039
   5.6000000000000022E-002     3.2849169927863901E-039
   5.7100000000000012E-002     3.0953585673288501E-039
   5.8200000000000002E-002    -3.2409971455119694E-040
   5.9300000000000019E-002    -5.8843737641406580E-039
   6.0400000000000009E-002    -9.6212577447142783E-039
   6.1500000000000027E-002    -6.6793806089621747E-039
   6.2600000000000017E-002     4.5376164665763161E-039
   6.3700000000000007E-002     1.8754407599880174E-038
   6.4800000000000024E-002     2.4578451507400271E-038
   6.5900000000000014E-002     1.1521782072879947E-038
   6.7000000000000004E-002    -1.9680622455768789E-038
   6.8100000000000022E-002    -5.1243322880483498E-038
   6.9200000000000012E-002    -5.4971912920239656E-038
   7.0300000000000029E-002    -1.2220556399894648E-038
   7.1400000000000019E-002     6.3811280302511588E-038
   7.2500000000000009E-002     1.2264557994119758E-037
   7.3600000000000027E-002     1.0237136713849204E-037
   7.4700000000000016E-002    -1.9415019090057441E-038
   7.5800000000000006E-002    -1.8245155730538046E-037
   7.6900000000000024E-002    -2.5356218096866154E-037
   7.8000000000000014E-002    -1.1257173485433806E-037
   7.9100000000000004E-002     2.1973072005599569E-037
   8.0200000000000021E-002     5.0903922392432240E-037
   8.1300000000000011E-002     4.0224935550075947E-037
   8.2400000000000029E-002    -2.8234365543091816E-037
   8.3500000000000019E-002    -1.2168743222810156E-036
   8.4600000000000009E-002    -1.4939571182663830E-036
   8.5700000000000026E-002    -1.2865920159787052E-037
   8.6800000000000016E-002     2.9001104562854273E-036
   8.7900000000000006E-002     5.7012410294061716E-036
   8.9000000000000024E-002     4.7277379817335121E-036
   9.0100000000000013E-002    -2.9025616591681142E-036
   9.1200000000000003E-002    -1.5556245383193795E-035
   9.2300000000000021E-002    -2.4372062101925824E-035
   9.3400000000000011E-002    -1.5679226160216102E-035
   9.4500000000000028E-002     1.9091977131321401E-035
   9.5600000000000018E-002     6.9279553183103805E-035
   9.6700000000000008E-002     9.7408887739431819E-035
   9.7800000000000026E-002     5.2261787455783526E-035
   9.8900000000000016E-002    -9.1395110935853418E-035
  0.10000000000000001         -2.8210034974565358E-034
  0.10110000000000002         -3.7131936249591875E-034
  0.10220000000000001         -1.7204855610595640E-034
  0.10330000000000003          3.8962888467420353E-034
  0.10440000000000002          1.0957506782505649E-033
  0.10550000000000001          1.3821987771687654E-033
  0.10660000000000003          5.7465029974673220E-034
  0.10770000000000002         -1.5540237864691875E-033
  0.10880000000000001         -4.1559774075104919E-033
  0.10990000000000003         -5.1494758709625280E-033
  0.11100000000000002         -2.0946777907139053E-033
  0.11210000000000001          5.8123472936095557E-033
  0.11320000000000002          1.5516290749433038E-032
  0.11430000000000001          1.9515949221038320E-032
  0.11540000000000003          8.8720478987729067E-033
  0.11650000000000002         -1.9843110158022577E-032
  0.11760000000000001         -5.6573716758812208E-032
  0.11870000000000003         -7.5072920525326026E-032
  0.11980000000000002         -4.2321485436043122E-032
  0.12090000000000001          5.8040148068599826E-032
  0.12200000000000003          1.9703349639450140E-031
  0.12310000000000001          2.8688004348873315E-031
  0.12420000000000003          2.0681162941990606E-031
  0.12530000000000002         -1.2167761517149640E-031
  0.12640000000000001         -6.3331958228139968E-031
  0.12750000000000003         -1.0546734101163226E-030
  0.12860000000000002         -9.5949681705774234E-031
  0.12970000000000001          6.6258706910554080E-033
  0.13080000000000003          1.7812625585496502E-030
  0.13190000000000002          3.6022337996046670E-030
  0.13300000000000001          4.0587312649194164E-030
  0.13410000000000000          1.6910348113381011E-030
  0.13520000000000004         -3.9125455112088266E-030
  0.13630000000000003         -1.0993044690939656E-029
  0.13740000000000002         -1.5308374807625210E-029
  0.13850000000000001         -1.1460941175318637E-029
  0.13960000000000000          3.9347348474969564E-030
  0.14070000000000005          2.8263850029044130E-029
  0.14180000000000004          5.0439410010654829E-029
  0.14290000000000003          5.2807785629600016E-029
  0.14400000000000002          1.9114592760298515E-029
  0.14510000000000001         -5.2956651300220442E-029
  0.14620000000000000         -1.4038967819827439E-028
  0.14730000000000004         -1.9331316302499252E-028
  0.14840000000000003         -1.5100059878219185E-028
  0.14950000000000002          2.3990124227860490E-029
  0.15060000000000001          3.0485411304205649E-028
  0.15170000000000000          5.7589325505988240E-028
  0.15280000000000005          6.5104403031166873E-028
  0.15390000000000004          3.5064526002740384E-028
  0.15500000000000003         -3.7736747967597446E-028
  0.15610000000000002         -1.3429548120817610E-027
  0.15720000000000001         -2.0838037808169882E-027
  0.15830000000000000         -1.9896458300049031E-027
  0.15940000000000004         -5.9483704858130005E-028
  0.16050000000000003          2.0445108052753601E-027
  0.16160000000000002          5.0733139684420383E-027
  0.16270000000000001          6.8880695062429760E-027
  0.16380000000000000          5.6708205405614953E-027
  0.16490000000000005          3.5578651774225233E-028
  0.16600000000000004         -8.3097871801917536E-027
  0.16710000000000003         -1.7188359354872726E-026
  0.16820000000000002         -2.1259439429635263E-026
  0.16930000000000001         -1.5494388692984435E-026
  0.17040000000000000          2.2657205520150864E-027
  0.17150000000000004          2.8559039937670076E-026
  0.17260000000000003          5.3308924613883406E-026
  0.17370000000000002          6.2035445294997751E-026
  0.17480000000000001          4.1630109653521266E-026
  0.17590000000000000         -1.1766954068459649E-026
  0.17700000000000005         -8.6115521181795171E-026
  0.17810000000000004         -1.5227479490728753E-025
  0.17920000000000003         -1.7146081214193423E-025
  0.18030000000000002         -1.1132660436731455E-025
  0.18140000000000001          3.4054375726154393E-026
  0.18250000000000000          2.2922290340917508E-025
  0.18360000000000004          3.9753086818448342E-025
  0.18470000000000003          4.4292926607523646E-025
  0.18580000000000002          2.9101983496056988E-025
  0.18690000000000001         -6.4161367714236381E-026
  0.18800000000000000         -5.2979024197694258E-025
  0.18910000000000005         -9.2280639176594476E-025
  0.19020000000000004         -1.0282279392045356E-024
  0.19130000000000003         -6.9588909477062306E-025
  0.19240000000000002          6.0781764397632759E-026
  0.19350000000000001          1.0157076944002891E-024
  0.19460000000000005          1.7758088594576487E-024
  0.19570000000000004          1.9318752998447236E-024
  0.19680000000000003          1.2706269161882871E-024
  0.19790000000000002         -4.8552097380322899E-026
  0.19900000000000001         -1.4682538394604365E-024
  0.20010000000000000         -2.2355568147915443E-024
  0.20120000000000005         -1.8061584888068114E-024
  0.20230000000000004         -2.8839923622112918E-025
  0.20340000000000003          1.3383027636385531E-024
  0.20450000000000002          1.4901794798869982E-024
  0.20560000000000000         -1.1782827644568124E-024
  0.20670000000000005         -6.5817231680061618E-024
  0.20780000000000004         -1.2241166024327101E-023
  0.20890000000000003         -1.3330723256566055E-023
  0.21000000000000002         -4.3521470321640364E-024
  0.21110000000000001          1.7575763505130082E-023
  0.21220000000000000          4.8824562949692215E-023
  0.21330000000000005          7.6766045816497913E-023
  0.21440000000000003          8.1100195143757919E-023
  0.21550000000000002          4.0671804712570374E-023
  0.21660000000000001         -5.4694213001177768E-023
  0.21770000000000000         -1.9093970033421747E-022
  0.21880000000000005         -3.2164834209095520E-022
  0.21990000000000004         -3.7263159482456205E-022
  0.22100000000000003         -2.6431833563883897E-022
  0.22210000000000002          4.9573136113245716E-023
  0.22320000000000001          5.3805163266426463E-022
  0.22430000000000000          1.0633591443063795E-021
  0.22540000000000004          1.3890531830354702E-021
  0.22650000000000003          1.2419364972289361E-021
  0.22760000000000002          4.2553352696288098E-022
  0.22870000000000001         -1.0440105530956725E-021
  0.22980000000000000         -2.8344019298029112E-021
  0.23090000000000005         -4.2920770073081004E-021
  0.23200000000000004         -4.5859396234770764E-021
  0.23310000000000003         -3.0031883388214674E-021
  0.23420000000000002          6.6998874542079570E-022
  0.23530000000000001          5.8202543614215611E-021
  0.23640000000000000          1.0905294608426362E-020
  0.23750000000000004          1.3723027905992547E-020
  0.23860000000000003          1.2088200424505104E-020
  0.23970000000000002          4.7831207751015751E-021
  0.24080000000000001         -7.5274731394183951E-021
  0.24190000000000000         -2.1832944603449132E-020
  0.24300000000000005         -3.3138777179830619E-020
  0.24410000000000004         -3.5803936037868605E-020
  0.24520000000000003         -2.5630974507143312E-020
  0.24630000000000002         -2.0809977806546587E-021
  0.24740000000000001          3.0282463428863264E-020
  0.24850000000000005          6.1980915043420057E-020
  0.24960000000000004          8.0876637405370798E-020
  0.25070000000000003          7.6185644100693602E-020
  0.25180000000000002          4.3095330865859465E-020
  0.25290000000000001         -1.3757907111332554E-020
  0.25400000000000000         -7.9700926759210657E-020
  0.25510000000000005         -1.3332185191730866E-019
  0.25620000000000004         -1.5325579431546329E-019
  0.25730000000000003         -1.2646787086482710E-019
  0.25840000000000002         -5.4909118500407992E-020
  0.25950000000000001          4.2625672094518227E-020
  0.26060000000000005          1.3525986158747196E-019
  0.26170000000000004          1.9074187064179141E-019
  0.26280000000000003          1.8861698250312558E-019
  0.26390000000000002          1.3047451684585556E-019
  0.26500000000000001          4.1976330709247621E-020
  0.26610000000000000         -3.6055444421717800E-020
  0.26720000000000005         -6.5723698406824826E-020
  0.26830000000000004         -3.2738690260200596E-020
  0.26940000000000003          3.9830856466455208E-020
  0.27050000000000002          9.3480567007513900E-020
  0.27160000000000001          5.5462464547681037E-020
  0.27270000000000005         -1.2542515655194491E-019
  0.27380000000000004         -4.4146376705830144E-019
  0.27490000000000003         -8.0461507807976204E-019
  0.27600000000000002         -1.0562806122178298E-018
  0.27710000000000001         -1.0133748704948293E-018
  0.27820000000000000         -5.4080692939358717E-019
  0.27930000000000005          3.7402917599750416E-019
  0.28040000000000004          1.5763498968375838E-018
  0.28150000000000003          2.7551016242127664E-018
  0.28260000000000002          3.5184264350159126E-018
  0.28370000000000001          3.5159015138816107E-018
  0.28480000000000005          2.5662743228879418E-018
  0.28590000000000004          7.3926049569050951E-019
  0.28700000000000003         -1.6488941471378337E-018
  0.28810000000000002         -4.1342368235158468E-018
  0.28920000000000001         -6.2634813284362204E-018
  0.29030000000000000         -7.7412000697302689E-018
  0.29140000000000005         -8.4855203720671021E-018
  0.29250000000000004         -8.5408266561070330E-018
  0.29360000000000003         -7.8605950854098444E-018
  0.29470000000000002         -6.0536763054494814E-018
  0.29580000000000001         -2.2495277913537775E-018
  0.29690000000000005          4.7539916285145686E-018
  0.29800000000000004          1.5965865784722747E-017
  0.29910000000000003          3.1349848767795688E-017
  0.30020000000000002          4.8877899258125075E-017
  0.30130000000000001          6.3881825390822049E-017
  0.30240000000000000          6.9158673553062283E-017
  0.30350000000000005          5.6192223490463567E-017
  0.30460000000000004          1.7584028669249094E-017
  0.30570000000000003         -4.9619707459139479E-017
  0.30680000000000002         -1.4046955783048033E-016
  0.30790000000000001         -2.3964361606328907E-016
  0.30900000000000005         -3.2120907342129874E-016
  0.31010000000000004         -3.5162937222695155E-016
  0.31120000000000003         -2.9642254617602785E-016
  0.31230000000000002         -1.2994613765523782E-016
  0.31340000000000001          1.5330129426131238E-016
  0.31450000000000006          5.2846363712466190E-016
  0.31560000000000005          9.3441121949173131E-016
  0.31670000000000004          1.2753090567944187E-015
  0.31780000000000003          1.4320002743608850E-015
  0.31890000000000002          1.2838298596438524E-015
  0.32000000000000001          7.3913571614891615E-016
  0.32110000000000005         -2.3009782947953928E-016
  0.32220000000000004         -1.5564562993617282E-015
  0.32330000000000003         -3.0568904839539899E-015
  0.32440000000000002         -4.4330008154308300E-015
  0.32550000000000001         -5.2989355903154095E-015
  0.32660000000000006         -5.2400669350165895E-015
  0.32770000000000005         -3.8996687611509875E-015
  0.32880000000000004         -1.0836167159865990E-015
  0.32990000000000003          3.1341961473158986E-015
  0.33100000000000002          8.3289627169454137E-015
  0.33210000000000001          1.3690654222653484E-014
  0.33320000000000005          1.8062610534385230E-014
  0.33430000000000004          2.0069972623582033E-014
  0.33540000000000003          1.8341584948971276E-014
  0.33650000000000002          1.1810677571016001E-014
  0.33760000000000001          5.8290024170430324E-017
  0.33870000000000006         -1.6357725739973215E-014
  0.33980000000000005         -3.5661887465078782E-014
  0.34090000000000004         -5.4789542693416485E-014
  0.34200000000000003         -6.9559314500241583E-014
  0.34310000000000002         -7.5140417901365726E-014
  0.34420000000000001         -6.6823629651916302E-014
  0.34530000000000005         -4.1045987859310768E-014
  0.34640000000000004          3.4498666432030459E-015
  0.34750000000000003          6.4510077773918365E-014
  0.34860000000000002          1.3576106832963431E-013
  0.34970000000000001          2.0636767538998095E-013
  0.35080000000000006          2.6160634554322553E-013
  0.35190000000000005          2.8442532817546121E-013
  0.35300000000000004          2.5802550909467922E-013
  0.35410000000000003          1.6930355176861406E-013
  0.35520000000000002          1.2775207589725713E-014
  0.35630000000000001         -2.0562727756096748E-013
  0.35740000000000005         -4.6566626046941673E-013
  0.35850000000000004         -7.3168553023969928E-013
  0.35960000000000003         -9.5407987415711208E-013
  0.36070000000000002         -1.0739283347226640E-012
  0.36180000000000001         -1.0309577268663458E-012
  0.36290000000000006         -7.7443700612166944E-013
  0.36400000000000005         -2.7593341609882214E-013
  0.36510000000000004          4.5781300839613743E-013
  0.36620000000000003          1.3742025537813039E-012
  0.36730000000000002          2.3688983320438217E-012
  0.36840000000000006          3.2873271100259208E-012
  0.36950000000000005          3.9356119502808883E-012
  0.37060000000000004          4.1019636648595373E-012
  0.37170000000000003          3.5880647471929039E-012
  0.37280000000000002          2.2481362130800883E-012
  0.37390000000000001          3.1390516110631886E-014
  0.37500000000000006         -2.9782632203128817E-012
  0.37610000000000005         -6.5327410279941988E-012
  0.37720000000000004         -1.0208525180976329E-011
  0.37830000000000003         -1.3420982856203605E-011
  0.37940000000000002         -1.5469615161541924E-011
  0.38050000000000006         -1.5616190558719521E-011
  0.38160000000000005         -1.3193069510048787E-011
  0.38270000000000004         -7.7334778677321866E-012
  0.38380000000000003          8.9026744610690892E-013
  0.38490000000000002          1.2339799603412430E-011
  0.38600000000000001          2.5717931904669888E-011
  0.38710000000000000          3.9534270768211011E-011
  0.38819999999999999          5.1751341398296907E-011
  0.38930000000000009          5.9927518247658543E-011
  0.39040000000000008          6.1463153024273322E-011
  0.39150000000000007          5.3943034037828646E-011
  0.39260000000000006          3.5552260267134510E-011
  0.39370000000000005          5.5259960767500999E-012
  0.39480000000000004         -3.5421939599543733E-011
  0.39590000000000003         -8.4758386090885383E-011
  0.39700000000000002         -1.3795004737994880E-010
  0.39810000000000001         -1.8851136599552023E-010
  0.39920000000000000         -2.2833614297496188E-010
  0.40029999999999999         -2.4834398510647056E-010
  0.40140000000000009         -2.3943835117461626E-010
  0.40250000000000008         -1.9373084054625323E-010
  0.40360000000000007         -1.0594085296475822E-010
  0.40470000000000006          2.5165699329977398E-011
  0.40580000000000005          1.9547217359714792E-010
  0.40690000000000004          3.9454076409983782E-010
  0.40800000000000003          6.0518058526055920E-010
  0.40910000000000002          8.0374178742231379E-010
  0.41020000000000001          9.6127995374032316E-010
  0.41130000000000000          1.0456656384324694E-009
  0.41239999999999999          1.0246219877603701E-009
  0.41350000000000009          8.6956524927043897E-010
  0.41460000000000008          5.6000941302777042E-010
  0.41570000000000007          8.8183495988677036E-011
  0.41680000000000006         -5.3658327207525089E-010
  0.41790000000000005         -1.2842179103640920E-009
  0.41900000000000004         -2.1015378106815651E-009
  0.42010000000000003         -2.9116705294648251E-009
  0.42120000000000002         -3.6156910215074555E-009
  0.42230000000000001         -4.0967715655313642E-009
  0.42340000000000000         -4.2269696830827104E-009
  0.42449999999999999         -3.8765713507785163E-009
  0.42560000000000009         -2.9256862445754758E-009
  0.42670000000000008         -1.2775856306160036E-009
  0.42780000000000007          1.1269021149353433E-009
  0.42890000000000006          4.2947356558124979E-009
  0.43000000000000005          8.1665718567107389E-009
  0.43110000000000004          1.2604022572305969E-008
  0.43220000000000003          1.7378848935567535E-008
  0.43330000000000002          2.2164454429881997E-008
  0.43440000000000001          2.6529630943570700E-008
  0.43550000000000000          2.9934104730330682E-008
  0.43659999999999999          3.1724916473701800E-008
  0.43770000000000009          3.1132116024924806E-008
  0.43880000000000008          2.7261814665520100E-008
  0.43990000000000007          1.9084107274922673E-008
  0.44100000000000006          5.4130682994788668E-009
  0.44210000000000005         -1.5124210880164394E-008
  0.44320000000000004         -4.4132736790190893E-008
  0.44430000000000003         -8.3512362170459640E-008
  0.44540000000000002         -1.3554129154938454E-007
  0.44650000000000001         -2.0298402790023771E-007
  0.44760000000000000         -2.8922685013909574E-007
  0.44869999999999999         -3.9844407022525640E-007
  0.44980000000000009         -5.3579836643764543E-007
  0.45090000000000008         -7.0767860017487662E-007
  0.45200000000000007         -9.2197931173011280E-007
  0.45310000000000006         -1.1884252127038631E-006
  0.45420000000000005         -1.5189480824176090E-006
  0.45530000000000004         -1.9281211795088577E-006
  0.45640000000000003         -2.4336578076756846E-006
  0.45750000000000002         -3.0569806989095480E-006
  0.45860000000000001         -3.8238731435354311E-006
  0.45970000000000000         -4.7652203313676935E-006
  0.46079999999999999         -5.9178503272144650E-006
  0.46190000000000009         -7.3254921109307088E-006
  0.46300000000000008         -9.0398557395668176E-006
  0.46410000000000007         -1.1121847711335915E-005
  0.46520000000000006         -1.3642936822383136E-005
  0.46630000000000005         -1.6686670182976056E-005
  0.46740000000000004         -2.0350347007729896E-005
  0.46850000000000003         -2.4746865025905557E-005
  0.46960000000000002         -3.0006730421427379E-005
  0.47070000000000001         -3.6280224984838348E-005
  0.47180000000000000         -4.3739743341136775E-005
  0.47289999999999999         -5.2582242534178226E-005
  0.47400000000000009         -6.3031867616532221E-005
  0.47510000000000008         -7.5342613439520112E-005
  0.47620000000000007         -8.9801095542447749E-005
  0.47730000000000006         -1.0672931310639017E-004
  0.47840000000000005         -1.2648737328455599E-004