 -0.12000000000000000          0.0000000000000000     
 -0.11889999999999999          0.0000000000000000     
 -0.11780000000000000          0.0000000000000000     
 -0.11670000000000000          0.0000000000000000     
 -0.11559999999999999          3.3254074458550861E-016
 -0.11449999999999999          2.2587097480932080E-015
 -0.11340000000000000          7.9271506981693750E-015
 -0.11230000000000000          1.8822199696323823E-014
 -0.11119999999999999          3.3354186322200961E-014
 -0.11009999999999999          4.5945703909907452E-014
 -0.10900000000000000          4.9409635585089106E-014
 -0.10790000000000000          3.8838183256704837E-014
 -0.10679999999999999          1.1539460230235136E-014
 -0.10569999999999999         -4.1191834731413382E-014
 -0.10460000000000000         -1.4623209386291694E-013
 -0.10349999999999999         -3.4961584448720362E-013
 -0.10239999999999999         -6.8868965688050809E-013
 -0.10130000000000000         -1.1323666232745473E-012
 -0.10020000000000000         -1.5155547132097584E-012
  -9.9099999999999994E-002    -1.5201604376102769E-012
  -9.7999999999999990E-002    -7.5471113250068272E-013
  -9.6899999999999986E-002     1.0559191958474683E-012
  -9.5799999999999996E-002     3.8286506620267734E-012
  -9.4699999999999993E-002     6.9480536910175974E-012
  -9.3599999999999989E-002     9.2903590160188161E-012
  -9.2499999999999999E-002     9.5119396417858798E-012
  -9.1399999999999995E-002     6.5470159998305990E-012
  -9.0299999999999991E-002     1.3633219635680198E-013
  -8.9200000000000002E-002    -8.8472504433720406E-012
  -8.8099999999999984E-002    -1.8456370478909381E-011
  -8.6999999999999994E-002    -2.6138034211965470E-011
  -8.5899999999999990E-002    -2.9458737335780343E-011
  -8.4799999999999986E-002    -2.6809378239838503E-011
  -8.3699999999999997E-002    -1.7823351570176086E-011
  -8.2599999999999993E-002    -3.3877864644062753E-012
  -8.1499999999999989E-002     1.4660393976065076E-011
  -8.0399999999999999E-002     3.3904690888981538E-011
  -7.9299999999999995E-002     5.1540591138197772E-011
  -7.8199999999999992E-002     6.4335149637937862E-011
  -7.7100000000000002E-002     6.8587616714417580E-011
  -7.5999999999999984E-002     6.0522217042919295E-011
  -7.4899999999999994E-002     3.7463355254492052E-011
  -7.3799999999999991E-002    -2.8218696393022102E-013
  -7.2699999999999987E-002    -4.7541071937528577E-011
  -7.1599999999999997E-002    -9.3585061180136643E-011
  -7.0499999999999993E-002    -1.2379914487965142E-010
  -6.9399999999999989E-002    -1.2408708552206403E-010
  -6.8300000000000000E-002    -8.7038671041344638E-011
  -6.7199999999999996E-002    -1.7524893089487561E-011
  -6.6099999999999992E-002     6.5195209143753766E-011
  -6.5000000000000002E-002     1.3101288384799337E-010
  -6.3899999999999985E-002     1.4821768016217981E-010
  -6.2799999999999995E-002     9.5853418502861570E-011
  -6.1699999999999991E-002    -2.5420416254045134E-011
  -6.0599999999999994E-002    -1.8875808704580796E-010
  -5.9499999999999990E-002    -3.4561554199902891E-010
  -5.8399999999999994E-002    -4.3850301055039725E-010
  -5.7299999999999990E-002    -4.1766948227276101E-010
  -5.6199999999999986E-002    -2.5561471942411241E-010
  -5.5099999999999996E-002     4.5672320715844768E-011
  -5.3999999999999992E-002     4.5640960286821404E-010
  -5.2899999999999989E-002     9.2707366645530949E-010
  -5.1799999999999985E-002     1.3973689487528755E-009
  -5.0699999999999995E-002     1.8008363769993828E-009
  -4.9599999999999991E-002     2.0631595146520078E-009
  -4.8499999999999988E-002     2.0971829416034241E-009
  -4.7399999999999998E-002     1.8016521036112548E-009
  -4.6299999999999994E-002     1.0712553445936781E-009
  -4.5199999999999990E-002    -1.7825821771063362E-010
  -4.4099999999999986E-002    -1.9732205771705928E-009
  -4.2999999999999997E-002    -4.2442206697935601E-009
  -4.1899999999999993E-002    -6.8022296804180647E-009
  -4.0799999999999989E-002    -9.3418015978169891E-009
  -3.9699999999999985E-002    -1.1476540805262535E-008
  -3.8599999999999995E-002    -1.2800445127238287E-008
  -3.7499999999999992E-002    -1.2958293902474043E-008
  -3.6399999999999988E-002    -1.1704047427493222E-008
  -3.5299999999999984E-002    -8.9312555812685491E-009
  -3.4199999999999994E-002    -4.6730621704522233E-009
  -3.3099999999999991E-002     9.1344296535111333E-010
  -3.1999999999999987E-002     7.5504110745858105E-009
  -3.0899999999999997E-002     1.4799844879397365E-008
  -2.9799999999999993E-002     2.1963796089624025E-008
  -2.8699999999999989E-002     2.7930284185600043E-008
  -2.7599999999999986E-002     3.0997591346014437E-008
  -2.6499999999999996E-002     2.8726997470527046E-008
  -2.5399999999999992E-002     1.7871879297490757E-008
  -2.4299999999999988E-002    -5.5915854173791026E-009
  -2.3199999999999985E-002    -4.6348135878125038E-008
  -2.2099999999999995E-002    -1.0959787449792217E-007
  -2.0999999999999991E-002    -2.0096477282831285E-007
  -1.9899999999999987E-002    -3.2654482165568950E-007
  -1.8799999999999983E-002    -4.9314827460475239E-007
  -1.7699999999999994E-002    -7.0874361481048455E-007
  -1.6599999999999990E-002    -9.8305997644268910E-007
  -1.5499999999999986E-002    -1.3282698743235205E-006
  -1.4399999999999996E-002    -1.7596705389194576E-006
  -1.3299999999999992E-002    -2.2963203748439243E-006
  -1.2199999999999989E-002    -2.9616411782992100E-006
  -1.1099999999999985E-002    -3.7840660643406017E-006
  -9.9999999999999950E-003    -4.7978513861954231E-006
  -8.8999999999999913E-003    -6.0441847179077771E-006
  -7.7999999999999875E-003    -7.5726895810630808E-006
  -6.6999999999999837E-003    -9.4433236582825337E-006
  -5.5999999999999939E-003    -1.1728629822029875E-005
  -4.4999999999999901E-003    -1.4516202921590365E-005
  -3.3999999999999864E-003    -1.7911233203029612E-005
  -2.2999999999999826E-003    -2.2039066834901478E-005
  -1.1999999999999927E-003    -2.7047805650904802E-005
  -9.9999999999988987E-005    -3.3111157296755132E-005
   1.0000000000000148E-003    -4.0431728644523888E-005
   2.1000000000000185E-003    -4.9245117432964632E-005
   3.2000000000000084E-003    -5.9824926066623873E-005
   4.3000000000000121E-003    -7.2488743835155310E-005
   5.4000000000000159E-003    -8.7604961341160591E-005
   6.5000000000000058E-003    -1.0559999453700915E-004
   7.6000000000000234E-003    -1.2696563650233195E-004
   8.7000000000000133E-003    -1.5226638694038796E-004
   9.8000000000000032E-003    -1.8214642874628050E-004
   1.0900000000000021E-002    -2.1733674500057747E-004
   1.2000000000000011E-002    -2.5866253219059584E-004
   1.3100000000000001E-002    -3.0705125711742509E-004
   1.4200000000000018E-002    -3.6354185318364872E-004
   1.5300000000000008E-002    -4.2929451093600524E-004
   1.6400000000000026E-002    -5.0560106230257927E-004
   1.7500000000000016E-002    -5.9389534011549425E-004
   1.8600000000000005E-002    -6.9576162633112806E-004
   1.9700000000000023E-002    -8.1294206160403522E-004
   2.0800000000000013E-002    -9.4734063231345005E-004
   2.1900000000000003E-002    -1.1010251353983612E-003
   2.3000000000000020E-002    -1.2762264666457265E-003
   2.4100000000000010E-002    -1.4753349269605309E-003
   2.5200000000000000E-002    -1.7008957305755155E-003
   2.6300000000000018E-002    -1.9556022166341632E-003
   2.7400000000000008E-002    -2.2422865361379461E-003
   2.8500000000000025E-002    -2.5639079270140270E-003
   2.9600000000000015E-002    -2.9235351799431837E-003
   3.0700000000000005E-002    -3.3243255789885753E-003
   3.1800000000000023E-002    -3.7694940497361227E-003
   3.2900000000000013E-002    -4.2622772063000657E-003
   3.4000000000000002E-002    -4.8058859580971816E-003
   3.5100000000000020E-002    -5.4034573538844222E-003
   3.6200000000000010E-002    -6.0579918259667893E-003
   3.7300000000000028E-002    -6.7722936410999010E-003
   3.8400000000000017E-002    -7.5489024534464259E-003
   3.9500000000000007E-002    -8.3900238948739457E-003
   4.0600000000000025E-002    -9.2974527414814243E-003
   4.1700000000000015E-002    -1.0272499812819814E-002
   4.2800000000000005E-002    -1.1315903700388879E-002
   4.3900000000000022E-002    -1.2427750588016890E-002
   4.5000000000000012E-002    -1.3607387453381076E-002
   4.6100000000000002E-002    -1.4853329674494637E-002
   4.7200000000000020E-002    -1.6163174351748077E-002
   4.8300000000000010E-002    -1.7533517475657959E-002
   4.9400000000000027E-002    -1.8959876669716030E-002
   5.0500000000000017E-002    -2.0436625581603238E-002
   5.1600000000000007E-002    -2.1956941941935846E-002
   5.2700000000000025E-002    -2.3512769677554526E-002
   5.3800000000000014E-002    -2.5094794520908160E-002
   5.4900000000000004E-002    -2.6692447085901957E-002
   5.6000000000000022E-002    -2.8293909773855968E-002
   5.7100000000000012E-002    -2.9886160748724334E-002
   5.8200000000000002E-002    -3.1455022175527418E-002
   5.9300000000000019E-002    -3.2985245580156329E-002
   6.0400000000000009E-002    -3.4460613794865140E-002
   6.1500000000000027E-002    -3.5864064725696615E-002
   6.2600000000000017E-002    -3.7177838384256270E-002
   6.3700000000000007E-002    -3.8383674279388255E-002
   6.4800000000000024E-002    -3.9463000284752858E-002
   6.5900000000000014E-002    -4.0397168543610924E-002
   6.7000000000000004E-002    -4.1167693557351281E-002
   6.8100000000000022E-002    -4.1756526414243156E-002
   6.9200000000000012E-002    -4.2146327011976119E-002
   7.0300000000000029E-002    -4.2320752611678378E-002
   7.1400000000000019E-002    -4.2264744863659227E-002
   7.2500000000000009E-002    -4.1964802901148832E-002
   7.3600000000000027E-002    -4.1409271206389119E-002
   7.4700000000000016E-002    -4.0588586093347118E-002
   7.5800000000000006E-002    -3.9495535994695755E-002
   7.6900000000000024E-002    -3.8125469155470423E-002
   7.8000000000000014E-002    -3.6476502078712218E-002
   7.9100000000000004E-002    -3.4549673962898368E-002
   8.0200000000000021E-002    -3.2349069447252916E-002
   8.1300000000000011E-002    -2.9881916846666461E-002
   8.2400000000000029E-002    -2.7158616879207134E-002
   8.3500000000000019E-002    -2.4192738670402118E-002
   8.4600000000000009E-002    -2.1000959258638791E-002
   8.5700000000000026E-002    -1.7602942332643774E-002
   8.6800000000000016E-002    -1.4021174190091558E-002
   8.7900000000000006E-002    -1.0280745570525652E-002
   8.9000000000000024E-002    -6.4090797697925247E-003
   9.0100000000000013E-002    -2.4356291118314060E-003
   9.1200000000000003E-002     1.6084757236081279E-003
   9.2300000000000021E-002     5.6908000533195217E-003
   9.3400000000000011E-002     9.7780178800842780E-003
   9.4500000000000028E-002     1.3836335514907769E-002
   9.5600000000000018E-002     1.7831927393108203E-002
   9.6700000000000008E-002     2.1731391343556068E-002
   9.7800000000000026E-002     2.5502194563983463E-002
   9.8900000000000016E-002     2.9113108199495735E-002
  0.10000000000000001          3.2534632842627267E-002
  0.10110000000000002          3.5739395339887688E-002
  0.10220000000000001          3.8702518260385017E-002
  0.10330000000000003          4.1401945348380612E-002
  0.10440000000000002          4.3818724822063775E-002
  0.10550000000000001          4.5937234502180992E-002
  0.10660000000000003          4.7745369446264951E-002
  0.10770000000000002          4.9234655740645172E-002
  0.10880000000000001          5.0400311431006165E-002
  0.10990000000000003          5.1241256751927249E-002
  0.11100000000000002          5.1760053549022106E-002
  0.11210000000000001          5.1962804565822369E-002
  0.11320000000000002          5.1858985225665857E-002
  0.11430000000000001          5.1461233418351099E-002
  0.11540000000000003          5.0785102395977021E-002
  0.11650000000000002          4.9848760927776105E-002
  0.11760000000000001          4.8672681191207948E-002
  0.11870000000000003          4.7279293345163127E-002
  0.11980000000000002          4.5692622818826273E-002
  0.12090000000000001          4.3937897096821658E-002
  0.12200000000000003          4.2041173743773481E-002
  0.12310000000000001          4.0028949620464806E-002
  0.12420000000000003          3.7927781870579484E-002
  0.12530000000000002          3.5763929709232881E-002
  0.12640000000000001          3.3563009709754309E-002
  0.12750000000000003          3.1349668760469920E-002
  0.12860000000000002          2.9147296389289225E-002
  0.12970000000000001          2.6977778941235733E-002
  0.13080000000000003          2.4861271554210154E-002
  0.13190000000000002          2.2816027579482895E-002
  0.13300000000000001          2.0858254881850360E-002
  0.13410000000000000          1.9002015598876303E-002
  0.13520000000000004          1.7259154271347898E-002
  0.13630000000000003          1.5639271882965648E-002
  0.13740000000000002          1.4149717127866800E-002
  0.13850000000000001          1.2795625110831927E-002
  0.13960000000000000          1.1579976053445237E-002
  0.14070000000000005          1.0503689994890474E-002
  0.14180000000000004          9.5657441306336057E-003
  0.14290000000000003          8.7633111541657940E-003
  0.14400000000000002          8.0919192255672501E-003
  0.14510000000000001          7.5456237017435300E-003
  0.14620000000000000          7.1171855522164772E-003
  0.14730000000000004          6.7982614150348293E-003
  0.14840000000000003          6.5795935333925696E-003
  0.14950000000000002          6.4511989198012751E-003
  0.15060000000000001          6.4025578551844828E-003
  0.15170000000000000          6.4227916062002347E-003
  0.15280000000000005          6.5008331670239903E-003
  0.15390000000000004          6.6255926569034297E-003
  0.15500000000000003          6.7861087312199708E-003
  0.15610000000000002          6.9716866063307846E-003
  0.15720000000000001          7.1720315794447723E-003
  0.15830000000000000          7.3773594185090174E-003
  0.15940000000000004          7.5784979158945234E-003
  0.16050000000000003          7.7669708480109659E-003
  0.16160000000000002          7.9350683448178531E-003
  0.16270000000000001          8.0758999189943347E-003
  0.16380000000000000          8.1834333830123982E-003
  0.16490000000000005          8.2525254479780367E-003
  0.16600000000000004          8.2789332671473273E-003
  0.16710000000000003          8.2593144906870294E-003
  0.16820000000000002          8.1912200229758200E-003
  0.16930000000000001          8.0730661478877110E-003
  0.17040000000000000          7.9041056606307999E-003
  0.17150000000000004          7.6843831997180471E-003
  0.17260000000000003          7.4146897823062028E-003
  0.17370000000000002          7.0965039845902371E-003
  0.17480000000000001          6.7319321952425482E-003
  0.17590000000000000          6.3236481160599987E-003
  0.17700000000000005          5.8748255258272734E-003
  0.17810000000000004          5.3890716931472996E-003
  0.17920000000000003          4.8703598994694307E-003
  0.18030000000000002          4.3229582453422240E-003
  0.18140000000000001          3.7513596521627311E-003
  0.18250000000000000          3.1602139402456507E-003
  0.18360000000000004          2.5542592252928062E-003
  0.18470000000000003          1.9382549193895687E-003
  0.18580000000000002          1.3169231106097449E-003
  0.18690000000000001          6.9488928083736006E-004
  0.18800000000000000          7.6629988177363004E-005
  0.18910000000000005         -5.3357428442251731E-004
  0.19020000000000004         -1.1316796199573923E-003
  0.19130000000000003         -1.7139139417126699E-003
  0.19240000000000002         -2.2768045634657978E-003
  0.19350000000000001         -2.8172002914030191E-003
  0.19460000000000005         -3.3322876401678850E-003
  0.19570000000000004         -3.8196021473020430E-003
  0.19680000000000003         -4.2770346763273378E-003
  0.19790000000000002         -4.7028367861211111E-003
  0.19900000000000001         -5.0956193260352422E-003
  0.20010000000000000         -5.4543491082531710E-003
  0.20120000000000005         -5.7783385052677617E-003
  0.20230000000000004         -6.0672329521545623E-003
  0.20340000000000003         -6.3209929075876466E-003
  0.20450000000000002         -6.5398705214292649E-003
  0.20560000000000000         -6.7243895373677214E-003
  0.20670000000000005         -6.8753182177039964E-003
  0.20780000000000004         -6.9936440398082177E-003
  0.20890000000000003         -7.0805457317808006E-003
  0.21000000000000002         -7.1373664749796190E-003
  0.21110000000000001         -7.1655853815752284E-003
  0.21220000000000000         -7.1667909345303916E-003
  0.21330000000000005         -7.1426552909844261E-003
  0.21440000000000003         -7.0949121455519170E-003
  0.21550000000000002         -7.0253391416983443E-003
  0.21660000000000001         -6.9357372154021163E-003
  0.21770000000000000         -6.8279161880107058E-003
  0.21880000000000005         -6.7036757345700594E-003
  0.21990000000000004         -6.5647900501738972E-003
  0.22100000000000003         -6.4129909455918769E-003
  0.22210000000000002         -6.2499536914257976E-003
  0.22320000000000001         -6.0772837582857746E-003
  0.22430000000000000         -5.8965084527651266E-003
  0.22540000000000004         -5.7090693984127210E-003
  0.22650000000000003         -5.5163191647867697E-003
  0.22760000000000002         -5.3195202795367665E-003
  0.22870000000000001         -5.1198451021592538E-003
  0.22980000000000000         -4.9183803275588828E-003
  0.23090000000000005         -4.7161298940205983E-003
  0.23200000000000004         -4.5140187564457184E-003
  0.23310000000000003         -4.3129001015316483E-003
  0.23420000000000002         -4.1135613316390989E-003
  0.23530000000000001         -3.9167301000684641E-003
  0.23640000000000000         -3.7230806981316286E-003
  0.23750000000000004         -3.5332409162214932E-003
  0.23860000000000003         -3.3477993758367626E-003
  0.23970000000000002         -3.1673132492236978E-003
  0.24080000000000001         -2.9923152899533467E-003
  0.24190000000000000         -2.8233224340312221E-003
  0.24300000000000005         -2.6608436773043007E-003
  0.24410000000000004         -2.5053878731998392E-003
  0.24520000000000003         -2.3574713379461150E-003
  0.24630000000000002         -2.2176243923906656E-003
  0.24740000000000001         -2.0863960868483288E-003
  0.24850000000000005         -1.9643577145000597E-003
  0.24960000000000004         -1.8521031793741634E-003
  0.25070000000000003         -1.7502472220140709E-003
  0.25180000000000002         -1.6594218939368455E-003
  0.25290000000000001         -1.5802707996108386E-003
  0.25400000000000000         -1.5134406930490099E-003
  0.25510000000000005         -1.4595726667522098E-003
  0.25620000000000004         -1.4192900407389993E-003
  0.25730000000000003         -1.3931855522401298E-003
  0.25840000000000002         -1.3818084857371972E-003
  0.25950000000000001         -1.3856510506477199E-003
  0.26060000000000005         -1.4051362935877214E-003
  0.26170000000000004         -1.4406053623160155E-003
  0.26280000000000003         -1.4923056771069074E-003
  0.26390000000000002         -1.5603791130307028E-003
  0.26500000000000001         -1.6448498293472644E-003
  0.26610000000000000         -1.7456119372857926E-003
  0.26720000000000005         -1.8624185553457388E-003
  0.26830000000000004         -1.9948725524246242E-003
  0.26940000000000003         -2.1424177246248161E-003
  0.27050000000000002         -2.3043347799747683E-003
  0.27160000000000001         -2.4797381803592848E-003
  0.27270000000000005         -2.6675754670992167E-003
  0.27380000000000004         -2.8666305805905711E-003
  0.27490000000000003         -3.0755293431148556E-003
  0.27600000000000002         -3.2927497449891903E-003
  0.27710000000000001         -3.5166357419672326E-003
  0.27820000000000000         -3.7454154298816609E-003
  0.27930000000000005         -3.9772220637516297E-003
  0.28040000000000004         -4.2101150994073794E-003
  0.28150000000000003         -4.4421025745477009E-003
  0.28260000000000002         -4.6711623516865492E-003
  0.28370000000000001         -4.8952627894247695E-003
  0.28480000000000005         -5.1123850760049399E-003
  0.28590000000000004         -5.3205428719178115E-003
  0.28700000000000003         -5.5178052907994581E-003
  0.28810000000000002         -5.7023185303610646E-003
  0.28920000000000001         -5.8723293622591263E-003
  0.29030000000000000         -6.0262081721275595E-003
  0.29140000000000005         -6.1624688728890917E-003
  0.29250000000000004         -6.2797911300610581E-003
  0.29360000000000003         -6.3770366674963525E-003
  0.29470000000000002         -6.4532653037483968E-003
  0.29580000000000001         -6.5077480000701043E-003
  0.29690000000000005         -6.5399694093518611E-003
  0.29800000000000004         -6.5496359331800669E-003
  0.29910000000000003         -6.5366736515177293E-003
  0.30020000000000002         -6.5012249435734189E-003
  0.30130000000000001         -6.4436423805132809E-003
  0.30240000000000000         -6.3644797014618011E-003
  0.30350000000000005         -6.2644799509750868E-003
  0.30460000000000004         -6.1445628673747876E-003
  0.30570000000000003         -6.0058080624548829E-003
  0.30680000000000002         -5.8494381087141993E-003
  0.30790000000000001         -5.6768020270467146E-003
  0.30900000000000005         -5.4893562889930213E-003
  0.31010000000000004         -5.2886467948743236E-003
  0.31120000000000003         -5.0762885318510345E-003
  0.31230000000000002         -4.8539444874153041E-003
  0.31340000000000001         -4.6233020841373908E-003
  0.31450000000000006         -4.3860485410336441E-003
  0.31560000000000005         -4.1438481359842398E-003
  0.31670000000000004         -3.8983168870319130E-003
  0.31780000000000003         -3.6510021814646189E-003
  0.31890000000000002         -3.4033624695173309E-003
  0.32000000000000001         -3.1567507395289882E-003
  0.32110000000000005         -2.9124013501065707E-003
  0.32220000000000004         -2.6714190519200299E-003
  0.32330000000000003         -2.4347722871853866E-003
  0.32440000000000002         -2.2032894495387645E-003
  0.32550000000000001         -1.9776576823970051E-003
  0.32660000000000006         -1.7584247049065446E-003
  0.32770000000000005         -1.5460014255095193E-003
  0.32880000000000004         -1.3406676953942999E-003
  0.32990000000000003         -1.1425789197148225E-003
  0.33100000000000002         -9.5177561323573430E-004
  0.33210000000000001         -7.6819522858875952E-004
  0.33320000000000005         -5.9168605300587976E-004
  0.33430000000000004         -4.2202325082576879E-004
  0.33540000000000003         -2.5892483542971283E-004
  0.33650000000000002         -1.0206807347388132E-004
  0.33760000000000001          4.8894381733525306E-005
  0.33870000000000006          1.9431861032453458E-004
  0.33980000000000005          3.3455277106475464E-004
  0.34090000000000004          4.6992018727961876E-004
  0.34200000000000003          6.0070250754610686E-004
  0.34310000000000002          7.2712418023856832E-004
  0.34420000000000001          8.4933929093645251E-004
  0.34530000000000005          9.6742318681905916E-004
  0.34640000000000004          1.0813672432926850E-003
  0.34750000000000003          1.1910792693401722E-003
  0.34860000000000002          1.2963872362425927E-003
  0.34970000000000001          1.3970465549576778E-003
  0.35080000000000006          1.4927501558049507E-003
  0.35190000000000005          1.5831399660706782E-003
  0.35300000000000004          1.6678204185103802E-003
  0.35410000000000003          1.7463727926472561E-003
  0.35520000000000002          1.8183688142755655E-003
  0.35630000000000001          1.8833845043492179E-003
  0.35740000000000005          1.9410135350682379E-003
  0.35850000000000004          1.9908813855262562E-003
  0.35960000000000003          2.0326584265964926E-003
  0.36070000000000002          2.0660729679008987E-003
  0.36180000000000001          2.0909258568944464E-003
  0.36290000000000006          2.1071024169405143E-003
  0.36400000000000005          2.1145852738660687E-003
  0.36510000000000004          2.1134630572689555E-003
  0.36620000000000003          2.1039384807597320E-003
  0.36730000000000002          2.0863312235979963E-003
  0.36840000000000006          2.0610796389036214E-003
  0.36950000000000005          2.0287358595940351E-003
  0.37060000000000004          1.9899590878537025E-003
  0.37170000000000003          1.9455022769286929E-003
  0.37280000000000002          1.8961968149646890E-003
  0.37390000000000001          1.8429336826975876E-003
  0.37500000000000006          1.7866445795314027E-003
  0.37610000000000005          1.7282833953743608E-003
  0.37720000000000004          1.6688094509076878E-003
  0.37830000000000003          1.6091740684784576E-003
  0.37940000000000002          1.5503084035477894E-003
  0.38050000000000006          1.4931126595659951E-003
  0.38160000000000005          1.4384457677894772E-003
  0.38270000000000004          1.3871161351478971E-003
  0.38380000000000003          1.3398713611515753E-003
  0.38490000000000002          1.2973893501774776E-003
  0.38600000000000001          1.2602701270863445E-003
  0.38710000000000000          1.2290286035386180E-003
  0.38819999999999999          1.2040904657658399E-003
  0.38930000000000009          1.1857887048333667E-003
  0.39040000000000008          1.1743641408542194E-003
  0.39150000000000007          1.1699669652923393E-003
  0.39260000000000006          1.1726610912348218E-003
  0.39370000000000005          1.1824302554738417E-003
  0.39480000000000004          1.1991847863025984E-003
  0.39590000000000003          1.2227691217275827E-003
  0.39700000000000002          1.2529685229482985E-003
  0.39810000000000001          1.2895157774353344E-003
  0.39920000000000000          1.3320956804915649E-003
  0.40029999999999999          1.3803484183221011E-003
  0.40140000000000009          1.4338715989645979E-003
  0.40250000000000008          1.4922209827585541E-003
  0.40360000000000007          1.5549110024994568E-003
  0.40470000000000006          1.6214150593586889E-003
  0.40580000000000005          1.6911658544420929E-003
  0.40690000000000004          1.7635570117886844E-003
  0.40800000000000003          1.8379436500288373E-003
  0.40910000000000002          1.9136435318787520E-003
  0.41020000000000001          1.9899379235609298E-003
  0.41130000000000000          2.0660722593496854E-003
  0.41239999999999999          2.1412586275127115E-003
  0.41350000000000009          2.2146810330493736E-003
  0.41460000000000008          2.2855014900990743E-003
  0.41570000000000007          2.3528721568257241E-003
  0.41680000000000006          2.4159451188482972E-003
  0.41790000000000005          2.4738854722092091E-003
  0.41900000000000004          2.5258814923544309E-003
  0.42010000000000003          2.5711524959517078E-003
  0.42120000000000002          2.6089570909281902E-003
  0.42230000000000001          2.6386026240406884E-003
  0.42340000000000000          2.6594531555937926E-003
  0.42449999999999999          2.6709408140733163E-003
  0.42560000000000009          2.6725770451399102E-003
  0.42670000000000008          2.6639620824697903E-003
  0.42780000000000007          2.6447922237057692E-003
  0.42890000000000006          2.6148657463806266E-003
  0.43000000000000005          2.5740844243427809E-003
  0.43110000000000004          2.5224546083234931E-003
  0.43220000000000003          2.4600856817044905E-003
  0.43330000000000002          2.3871877396842520E-003
  0.43440000000000001          2.3040653572377759E-003
  0.43550000000000000          2.2111079288968526E-003
  0.43659999999999999          2.1087772834558240E-003
  0.43770000000000009          1.9975929532525696E-003
  0.43880000000000008          1.8781145466796223E-003
  0.43990000000000007          1.7509259911769339E-003
  0.44100000000000006          1.6166207109002593E-003
  0.44210000000000005          1.4757872021209976E-003
  0.44320000000000004          1.3289968981459006E-003
  0.44430000000000003          1.1767933023282900E-003
  0.44540000000000002          1.0196822626927287E-003
  0.44650000000000001          8.5812650210896223E-004
  0.44760000000000000          6.9254282021726909E-004
  0.44869999999999999          5.2330398718870592E-004
  0.44980000000000009          3.5074281438500130E-004
  0.45090000000000008          1.7515777908339977E-004
  0.45200000000000007         -3.1813249534118034E-006
  0.45310000000000006         -1.8402813708513017E-004
  0.45420000000000005         -3.6715366966799673E-004
  0.45530000000000004         -5.5233713939708846E-004
  0.45640000000000003         -7.3935354189390691E-004
  0.45750000000000002         -9.2795695431677335E-004
  0.45860000000000001         -1.1178611209570666E-003
  0.45970000000000000         -1.3087200648181706E-003
  0.46079999999999999         -1.5001112071796727E-003
  0.46190000000000009         -1.6915222736728491E-003
  0.46300000000000008         -1.8823423880015915E-003
  0.46410000000000007         -2.0718573279701466E-003
  0.46520000000000006         -2.2592469769657443E-003
  0.46630000000000005         -2.4435861490476178E-003
  0.46740000000000004         -2.6238476906596028E-003
  0.46850000000000003         -2.7989086685101050E-003
  0.46960000000000002         -2.9675627198050216E-003
  0.47070000000000001         -3.1285349568775231E-003
  0.47180000000000000         -3.2805008378866398E-003
  0.47289999999999999         -3.4221059560208497E-003
  0.47400000000000009         -3.5519890671255982E-003
  0.47510000000000008         -3.6688037030106501E-003
  0.47620000000000007         -3.7712423268849182E-003
  0.47730000000000006         -3.8580572818864246E-003
  0.47840000000000005         -3.9280890252989704E-003