 -0.12000000000000000          0.0000000000000000     
 -0.11889999999999999          0.0000000000000000     
 -0.11780000000000000          0.0000000000000000     
 -0.11670000000000000          0.0000000000000000     
 -0.11559999999999999          0.0000000000000000     
 -0.11449999999999999          0.0000000000000000     
 -0.11340000000000000          0.0000000000000000     
 -0.11230000000000000          0.0000000000000000     
 -0.11119999999999999          0.0000000000000000     
 -0.11009999999999999          0.0000000000000000     
 -0.10900000000000000          0.0000000000000000     
 -0.10790000000000000          0.0000000000000000     
 -0.10679999999999999          0.0000000000000000     
 -0.10569999999999999          0.0000000000000000     
 -0.10460000000000000          0.0000000000000000     
 -0.10349999999999999          0.0000000000000000     
 -0.10239999999999999          0.0000000000000000     
 -0.10130000000000000          0.0000000000000000     
 -0.10020000000000000          0.0000000000000000     
  -9.9099999999999994E-002     0.0000000000000000     
  -9.7999999999999990E-002     0.0000000000000000     
  -9.6899999999999986E-002     0.0000000000000000     
  -9.5799999999999996E-002     0.0000000000000000     
  -9.4699999999999993E-002     0.0000000000000000     
  -9.3599999999999989E-002     0.0000000000000000     
  -9.2499999999999999E-002     0.0000000000000000     
  -9.1399999999999995E-002     0.0000000000000000     
  -9.0299999999999991E-002     0.0000000000000000     
  -8.9200000000000002E-002     0.0000000000000000     
  -8.8099999999999984E-002     0.0000000000000000     
  -8.6999999999999994E-002     0.0000000000000000     
  -8.5899999999999990E-002     0.0000000000000000     
  -8.4799999999999986E-002    -2.8025969286496341E-045
  -8.3699999999999997E-002    -1.4012984643248171E-045
  -8.2599999999999993E-002     1.6815581571897805E-044
  -8.1499999999999989E-002     4.3440252394069329E-044
  -8.0399999999999999E-002    -3.0828566215145976E-044
  -7.9299999999999995E-002    -3.2510124372335756E-043
  -7.8199999999999992E-002    -4.2879733008339402E-043
  -7.7100000000000002E-002     9.9211931274197049E-043
  -7.5999999999999984E-002     4.1058045004717140E-042
  -7.4899999999999994E-002     2.6106190390371342E-042
  -7.3799999999999991E-002    -1.4968670195917696E-041
  -7.2699999999999987E-002    -3.9512412798566867E-041
  -7.1599999999999997E-002    -5.5071029647965311E-042
  -7.0499999999999993E-002     1.5952241588027285E-040
  -6.9399999999999989E-002     3.1161514730269552E-040
  -6.8300000000000000E-002    -7.7978055644283096E-041
  -6.7199999999999996E-002    -1.3521675388671247E-039
  -6.6099999999999992E-002    -2.1279585985820229E-039
  -6.5000000000000002E-002     1.1633537811870702E-039
  -6.3899999999999985E-002     9.6745113483568927E-039
  -6.2799999999999995E-002     1.3124576831149344E-038
  -6.1699999999999991E-002    -9.6223340000377582E-039
  -6.0599999999999994E-002    -6.0507103596202146E-038
  -5.9499999999999990E-002    -7.5354197137355020E-038
  -5.8399999999999994E-002     5.9413625562938632E-038
  -5.7299999999999990E-002     3.3775916154121592E-037
  -5.6199999999999986E-002     4.0966693797308420E-037
  -5.5099999999999996E-002    -2.9119358757696909E-037
  -5.3999999999999992E-002    -1.7015808064790706E-036
  -5.2899999999999989E-002    -2.1179927208491728E-036
  -5.1799999999999985E-002     1.1142048294259327E-036
  -5.0699999999999995E-002     7.7647830356543149E-036
  -4.9599999999999991E-002     1.0360132360743844E-035
  -4.8499999999999988E-002    -2.8542983399583454E-036
  -4.7399999999999998E-002    -3.2002934146210700E-035
  -4.6299999999999994E-002    -4.7465985489567650E-035
  -4.5199999999999990E-002    -1.5652649581548496E-037
  -4.4099999999999986E-002     1.1792741850497802E-034
  -4.2999999999999997E-002     2.0130772384663616E-034
  -4.1899999999999993E-002     5.7867910893176331E-035
  -4.0799999999999989E-002    -3.8019275519809295E-034
  -3.9699999999999985E-002    -7.8051548381203294E-034
  -3.8599999999999995E-002    -4.4503486029937349E-034
  -3.7499999999999992E-002     1.0226742077436360E-033
  -3.6399999999999988E-002     2.7274820934686837E-033
  -3.5299999999999984E-002     2.3432218063925091E-033
  -3.4199999999999994E-002    -2.0021023456625047E-033
  -3.3099999999999991E-002    -8.4254329013355184E-033
  -3.1999999999999987E-002    -9.9327296344605974E-033
  -3.0899999999999997E-002     9.8345558360287740E-034
  -2.9799999999999993E-002     2.2265784937837720E-032
  -2.8699999999999989E-002     3.5402645482359030E-032
  -2.7599999999999986E-002     1.4345049801343781E-032
  -2.6499999999999996E-002    -4.6812266953876719E-032
  -2.5399999999999992E-002    -1.0688432765148374E-031
  -2.4299999999999988E-002    -8.7466024964247408E-032
  -2.3199999999999985E-002     6.0423389510444912E-032
  -2.2099999999999995E-002     2.6849184348487672E-031
  -2.0999999999999991E-002     3.3432453473685932E-031
  -1.9899999999999987E-002     5.5280654622843192E-032
  -1.8799999999999983E-002    -5.2758039044001159E-031
  -1.7699999999999994E-002    -9.8090752988547319E-031
  -1.6599999999999990E-002    -6.7538893090336734E-031
  -1.5499999999999986E-002     6.4033926286467323E-031
  -1.4399999999999996E-002     2.2676188807023358E-030
  -1.3299999999999992E-002     2.6368693039227476E-030
  -1.2199999999999989E-002     4.1157207547148489E-031
  -1.1099999999999985E-002    -3.8872029602031311E-030
  -9.9999999999999950E-003    -7.1475239989884466E-030
  -8.8999999999999913E-003    -5.2065138726733818E-030
  -7.7999999999999875E-003     3.4777566487156732E-030
  -6.6999999999999837E-003     1.4490892503829539E-029
  -5.5999999999999939E-003     1.8126815020753438E-029
  -4.4999999999999901E-003     5.8778072872189363E-030
  -3.3999999999999864E-003    -2.0211889973123359E-029
  -2.2999999999999826E-003    -4.2948818548084214E-029
  -1.1999999999999927E-003    -3.7621241922812866E-029
  -9.9999999999988987E-005     8.2287929795979732E-030
   1.0000000000000148E-003     7.4879656699696405E-029
   2.1000000000000185E-003     1.0967935106867121E-028
   3.2000000000000084E-003     5.7988179788888781E-029
   4.3000000000000121E-003    -8.4451859542510158E-029
   5.4000000000000159E-003    -2.3483848443597635E-028
   6.5000000000000058E-003    -2.4776313547739173E-028
   7.6000000000000234E-003    -1.6972889580675518E-029
   8.7000000000000133E-003     3.9255840055631290E-028
   9.8000000000000032E-003     6.8942384218958636E-028
   1.0900000000000021E-002     4.8413502126096489E-028
   1.2000000000000011E-002    -3.9332094844366872E-028
   1.3100000000000001E-002    -1.5575188053254015E-027
   1.4200000000000018E-002    -2.0250061362953317E-027
   1.5300000000000008E-002    -7.2728136562392016E-028
   1.6400000000000026E-002     2.4895283055228834E-027
   1.7500000000000016E-002     5.9602720805783870E-027
   1.8600000000000005E-002     6.3332792588595071E-027
   1.9700000000000023E-002     4.4467435374092316E-028
   2.0800000000000013E-002    -1.1428678601543785E-026
   2.1900000000000003E-002    -2.2869390413380101E-026
   2.3000000000000020E-002    -2.2149567163317572E-026
   2.4100000000000010E-002     1.2490221912754874E-027
   2.5200000000000000E-002     4.5668131553424256E-026
   2.6300000000000018E-002     8.8124009174836907E-026
   2.7400000000000008E-002     8.6762650956579212E-026
   2.8500000000000025E-002     2.4869442853164990E-027
   2.9600000000000015E-002    -1.6328136373913631E-025
   3.0700000000000005E-002    -3.3432627742510193E-025
   3.1800000000000023E-002    -3.6168727697320723E-025
   3.2900000000000013E-002    -9.0838350127210146E-026
   3.4000000000000002E-002     5.0893154224345956E-025
   3.5100000000000020E-002     1.2109425102813246E-024
   3.6200000000000010E-002     1.5026218578345307E-024
   3.7300000000000028E-002     7.7331871836254085E-025
   3.8400000000000017E-002    -1.2586119942772462E-024
   3.9500000000000007E-002    -4.0344236014870548E-024
   4.0600000000000025E-002    -5.9081299678725282E-024
   4.1700000000000015E-002    -4.5789249805545429E-024
   4.2800000000000005E-002     1.5971115184542903E-024
   4.3900000000000022E-002     1.1757501631219669E-023
   4.5000000000000012E-002     2.1179571086201670E-023
   4.6100000000000002E-002     2.1871045534951338E-023
   4.7200000000000020E-002     6.1613685179447669E-024
   4.8300000000000010E-002    -2.7151898160110632E-023
   4.9400000000000027E-002    -6.6830364758828139E-023
   5.0500000000000017E-002    -8.8035122596011706E-023
   5.1600000000000007E-002    -6.0450890794516509E-023
   5.2700000000000025E-002     3.3443818030273592E-023
   5.3800000000000014E-002     1.7593231444046733E-022
   5.4900000000000004E-002     3.0073687491755457E-022
   5.6000000000000022E-002     3.0497339876650246E-022
   5.7100000000000012E-002     9.5813859101342641E-023
   5.8200000000000002E-002    -3.3675025588529181E-022
   5.9300000000000019E-002    -8.5389242730222085E-022
   6.0400000000000009E-002    -1.1591955825488802E-021
   6.1500000000000027E-002    -8.9219931091136145E-022
   6.2600000000000017E-002     1.7057617608595736E-022
   6.3700000000000007E-002     1.8713206427488060E-021
   6.4800000000000024E-002     3.5184111199071693E-021
   6.5900000000000014E-002     3.9869487562977220E-021
   6.7000000000000004E-002     2.1698805392469892E-021
   6.8100000000000022E-002    -2.2900063088972255E-021
   6.9200000000000012E-002    -8.2824019537479116E-021
   7.0300000000000029E-002    -1.2994994498510994E-020
   7.1400000000000019E-002    -1.2611377372536023E-020
   7.2500000000000009E-002    -4.0756251029028208E-021
   7.3600000000000027E-002     1.2528275609336421E-020
   7.4700000000000016E-002     3.2083990128413531E-020
   7.5800000000000006E-002     4.4489990025521288E-020
   7.6900000000000024E-002     3.7766068239450739E-020
   7.8000000000000014E-002     4.1385724166071125E-021
   7.9100000000000004E-002    -5.2806648081062692E-020
   8.0200000000000021E-002    -1.1353393826823276E-019
   8.1300000000000011E-002    -1.4469319863294883E-019
   8.2400000000000029E-002    -1.1053191887951883E-019
   8.3500000000000019E-002     7.8315933666679132E-021
   8.4600000000000009E-002     1.9198133064440960E-019
   8.5700000000000026E-002     3.7561806326938426E-019
   8.6800000000000016E-002     4.5513989863778212E-019
   8.7900000000000006E-002     3.2685804090606780E-019
   8.9000000000000024E-002    -5.5622538907255123E-020
   9.0100000000000013E-002    -6.2480953152343406E-019
   9.1200000000000003E-002    -1.1748290109750033E-018
   9.2300000000000021E-002    -1.3988835977869088E-018
   9.3400000000000011E-002    -1.0002425131307596E-018
   9.4500000000000028E-002     1.4510729300241111E-019
   9.5600000000000018E-002     1.8341493448347622E-018
   9.6700000000000008E-002     3.4757575128467812E-018
   9.7800000000000026E-002     4.2001902992018409E-018
   9.8900000000000016E-002     3.1653559200347262E-018
  0.10000000000000001         -2.2503890831483021E-021
  0.10110000000000002         -4.7913034910995851E-018
  0.10220000000000001         -9.6343454751531369E-018
  0.10330000000000003         -1.2179532243503275E-017
  0.10440000000000002         -1.0073272323592150E-017
  0.10550000000000001         -2.1009924337703873E-018
  0.10660000000000003          1.0707619764566203E-017
  0.10770000000000002          2.4555276691387803E-017
  0.10880000000000001          3.3436218620002130E-017
  0.10990000000000003          3.0975121378362907E-017
  0.11100000000000002          1.3222985017472580E-017
  0.11210000000000001         -1.8490909563934913E-017
  0.11320000000000002         -5.5940352090054442E-017
  0.11430000000000001         -8.4851889450669060E-017
  0.11540000000000003         -8.8817995494734213E-017
  0.11650000000000002         -5.5715676600795238E-017
  0.11760000000000001          1.5259708826370047E-017
  0.11870000000000003          1.0881555002434669E-016
  0.11980000000000002          1.9397156400774944E-016
  0.12090000000000001          2.3138894005024274E-016
  0.12200000000000003          1.8697062494045584E-016
  0.12310000000000001          4.8161902951630392E-017
  0.12420000000000003         -1.6300602468960235E-016
  0.12530000000000002         -3.8673316792012572E-016
  0.12640000000000001         -5.3680675974549842E-016
  0.12750000000000003         -5.2665755803193819E-016
  0.12860000000000002         -3.0426042858217148E-016
  0.12970000000000001          1.1546734608124901E-016
  0.13080000000000003          6.3464340619722478E-016
  0.13190000000000002          1.0843078398456744E-015
  0.13300000000000001          1.2680543794561946E-015
  0.13410000000000000          1.0297757528223241E-015
  0.13520000000000004          3.2616626231516419E-016
  0.13630000000000003         -7.2275844375507673E-016
  0.13740000000000002         -1.8308422337323833E-015
  0.13850000000000001         -2.6050845576314381E-015
  0.13960000000000000         -2.6616708054309985E-015
  0.14070000000000005         -1.7704806542077922E-015
  0.14180000000000004          1.8190677743163891E-017
  0.14290000000000003          2.3160252470184883E-015
  0.14400000000000002          4.4467785539675699E-015
  0.14510000000000001          5.6127130531160099E-015
  0.14620000000000000          5.1459436890702662E-015
  0.14730000000000004          2.7755908076060711E-015
  0.14840000000000003         -1.1796569622895517E-015
  0.14950000000000002         -5.7777891866240324E-015
  0.15060000000000001         -9.6258399607260584E-015
  0.15170000000000000         -1.1244816384460565E-014
  0.15280000000000005         -9.5453464197484822E-015
  0.15390000000000004         -4.2783879805369414E-015
  0.15500000000000003          3.6933952634275995E-015
  0.15610000000000002          1.2429135310212686E-014
  0.15720000000000001          1.9298690250024730E-014
  0.15830000000000000          2.1673174322930921E-014
  0.15940000000000004          1.7757564624472366E-014
  0.16050000000000003          7.3319603901135337E-015
  0.16160000000000002         -7.8459027130577640E-015
  0.16270000000000001         -2.4165417998362089E-014
  0.16380000000000000         -3.6877849407014607E-014
  0.16490000000000005         -4.1298263636982413E-014
  0.16600000000000004         -3.4228594622282699E-014
  0.16710000000000003         -1.5222433976855819E-014
  0.16820000000000002          1.2710520502323512E-014
  0.16930000000000001          4.3274279694577658E-014
  0.17040000000000000          6.8050044223742778E-014
  0.17150000000000004          7.8509938892905307E-014
  0.17260000000000003          6.8467814425855755E-014
  0.17370000000000002          3.6348365723554155E-014
  0.17480000000000001         -1.3408435840312535E-014
  0.17590000000000000         -7.0380753633934867E-014
  0.17700000000000005         -1.1990950767037933E-013
  0.17810000000000004         -1.4639671582199892E-013
  0.17920000000000003         -1.3752867388753393E-013
  0.18030000000000002         -8.8410541095127609E-014
  0.18140000000000001         -4.4274179218921784E-015
  0.18250000000000000          9.8224983105955205E-014
  0.18360000000000004          1.9494003850387132E-013
  0.18470000000000003          2.5791887614361186E-013
  0.18580000000000002          2.6328670688947897E-013
  0.18690000000000001          1.9847215234139459E-013
  0.18800000000000000          6.7835040156675325E-014
  0.18910000000000005         -1.0535845064224211E-013
  0.19020000000000004         -2.8185122963840514E-013
  0.19130000000000003         -4.1429836991624391E-013
  0.19240000000000002         -4.5887593854918030E-013
  0.19350000000000001         -3.8804679955428689E-013
  0.19460000000000005         -2.0112546610800974E-013
  0.19570000000000004          7.0705750011400975E-014
  0.19680000000000003          3.6735572266424765E-013
  0.19790000000000002          6.1139651284444763E-013
  0.19900000000000001          7.2654469246424824E-013
  0.20010000000000000          6.5915312487743738E-013
  0.20120000000000005          3.9717767920041669E-013
  0.20230000000000004         -1.9135394156255363E-014
  0.20340000000000003         -4.9931456538865326E-013
  0.20450000000000002         -9.1915646101281556E-013
  0.20560000000000000         -1.1494566149600205E-012
  0.20670000000000005         -1.0910493428856194E-012
  0.20780000000000004         -7.0740331994945116E-013
  0.20890000000000003         -4.5307450147321834E-014
  0.21000000000000002          7.6402870575337234E-013
  0.21110000000000001          1.5267576699423691E-012
  0.21220000000000000          2.0286489502141514E-012
  0.21330000000000005          2.0891988226218183E-012
  0.21440000000000003          1.6146483022144720E-012
  0.21550000000000002          6.3543978022148617E-013
  0.21660000000000001         -6.8399051613571293E-013
  0.21770000000000000         -2.0693037127567093E-012
  0.21880000000000005         -3.1925621001016591E-012
  0.21990000000000004         -3.7491199381123330E-012
  0.22100000000000003         -3.5385936802273532E-012
  0.22210000000000002         -2.5283772471518251E-012
  0.22320000000000001         -8.8127741866214637E-013
  0.22430000000000000          1.0645409250290006E-012
  0.22540000000000004          2.8641373127358261E-012
  0.22650000000000003          4.0713899265854003E-012
  0.22760000000000002          4.3588253666182464E-012
  0.22870000000000001          3.6228930012233151E-012
  0.22980000000000000          2.0433964850047337E-012
  0.23090000000000005          7.8125013240355062E-014
  0.23200000000000004         -1.6209441558098781E-012
  0.23310000000000003         -2.3572207553945734E-012
  0.23420000000000002         -1.5781226152256078E-012
  0.23530000000000001          9.4062583243237352E-013
  0.23640000000000000          4.9635139748316348E-012
  0.23750000000000004          9.7562903936254664E-012
  0.23860000000000003          1.4167858726488181E-011
  0.23970000000000002          1.6831609023215677E-011
  0.24080000000000001          1.6446467451802782E-011
  0.24190000000000000          1.2096355167523498E-011
  0.24300000000000005          3.5233046948718316E-012
  0.24410000000000004         -8.7053862382613367E-012
  0.24520000000000003         -2.3182959024703464E-011
  0.24630000000000002         -3.7821482057331934E-011
  0.24740000000000001         -5.0147105218334431E-011
  0.24850000000000005         -5.7687712246012879E-011
  0.24960000000000004         -5.8362571719872136E-011
  0.25070000000000003         -5.0809360191417241E-011
  0.25180000000000002         -3.4611421367847228E-011
  0.25290000000000001         -1.0380844621404872E-011
  0.25400000000000000          2.0203052772393981E-011
  0.25510000000000005          5.4371132596209293E-011
  0.25620000000000004          8.8142222687270788E-011
  0.25730000000000003          1.1603316918407103E-010
  0.25840000000000002          1.3062952108899850E-010
  0.25950000000000001          1.2187269249341881E-010
  0.26060000000000005          7.6419356953572048E-011
  0.26170000000000004         -2.3286856817850143E-011
  0.26280000000000003         -1.9966882314204071E-010
  0.26390000000000002         -4.8056381096728273E-010
  0.26500000000000001         -8.9969481864571321E-010
  0.26610000000000000         -1.4968190020780980E-009
  0.26720000000000005         -2.3179893560154596E-009
  0.26830000000000004         -3.4159752804185928E-009
  0.26940000000000003         -4.8513353334556086E-009
  0.27050000000000002         -6.6943517396111929E-009
  0.27160000000000001         -9.0269764996264712E-009
  0.27270000000000005         -1.1947262734679498E-008
  0.27380000000000004         -1.5574178391375426E-008
  0.27490000000000003         -2.0052652871527243E-008
  0.27600000000000002         -2.5561634586779292E-008
  0.27710000000000001         -3.2322070353529853E-008
  0.27820000000000000         -4.0605762308132398E-008
  0.27930000000000005         -5.0743913959649944E-008
  0.28040000000000004         -6.3133171579465852E-008
  0.28150000000000003         -7.8255354196699045E-008
  0.28260000000000002         -9.6685631945092609E-008
  0.28370000000000001         -1.1910347552657186E-007
  0.28480000000000005         -1.4631216060934094E-007
  0.28590000000000004         -1.7926736006756983E-007
  0.28700000000000003         -2.1907052882852440E-007
  0.28810000000000002         -2.6702656441557338E-007
  0.28920000000000001         -3.2464964760947623E-007
  0.29030000000000000         -3.9370041804431821E-007
  0.29140000000000005         -4.7618792109460628E-007
  0.29250000000000004         -5.7443998002781882E-007
  0.29360000000000003         -6.9120261514399317E-007
  0.29470000000000002         -8.2953920355066657E-007
  0.29580000000000001         -9.9301598766032839E-007
  0.29690000000000005         -1.1856216133310227E-006
  0.29800000000000004         -1.4118645594862755E-006
  0.29910000000000003         -1.6769342892075656E-006
  0.30020000000000002         -1.9866797629219946E-006
  0.30130000000000001         -2.3476136448152829E-006
  0.30240000000000000         -2.7668220354826190E-006
  0.30350000000000005         -3.2526174891245319E-006
  0.30460000000000004         -3.8139464777486864E-006
  0.30570000000000003         -4.4607077143155038E-006
  0.30680000000000002         -5.2038312787772156E-006
  0.30790000000000001         -6.0547790781129152E-006
  0.30900000000000005         -7.0261762630252633E-006
  0.31010000000000004         -8.1323651102138683E-006
  0.31120000000000003         -9.3892331278766505E-006
  0.31230000000000002         -1.0812002983584534E-005
  0.31340000000000001         -1.2417225661920384E-005
  0.31450000000000006         -1.4222700883692596E-005
  0.31560000000000005         -1.6247800886048935E-005
  0.31670000000000004         -1.8512653696234338E-005
  0.31780000000000003         -2.1036572434240952E-005
  0.31890000000000002         -2.3840359062887728E-005
  0.32000000000000001         -2.6944666387862526E-005
  0.32110000000000005         -3.0370541935553774E-005
  0.32220000000000004         -3.4139611670980230E-005
  0.32330000000000003         -3.8272512028925121E-005
  0.32440000000000002         -4.2787716665770859E-005
  0.32550000000000001         -4.7705980250611901E-005
  0.32660000000000006         -5.3041563660372049E-005
  0.32770000000000005         -5.8807218010770157E-005
  0.32880000000000004         -6.5021085902117193E-005
  0.32990000000000003         -7.1685615694150329E-005
  0.33100000000000002         -7.8809331171214581E-005
  0.33210000000000001         -8.6393338278867304E-005
  0.33320000000000005         -9.4441114924848080E-005
  0.33430000000000004         -1.0293442755937576E-004
  0.33540000000000003         -1.1187298514414579E-004
  0.33650000000000002         -1.2122710904804990E-004
  0.33760000000000001         -1.3097170449327677E-004
  0.33870000000000006         -1.4108225877862424E-004
  0.33980000000000005         -1.5151532716117799E-004
  0.34090000000000004         -1.6223051352426410E-004
  0.34200000000000003         -1.7316645244136453E-004
  0.34310000000000002         -1.8428043404128402E-004
  0.34420000000000001         -1.9549400894902647E-004
  0.34530000000000005         -2.0670035155490041E-004
  0.34640000000000004         -2.1788667072542012E-004
  0.34750000000000003         -2.2892613196745515E-004
  0.34860000000000002         -2.3974037321750075E-004
  0.34970000000000001         -2.5022710906341672E-004
  0.35080000000000006         -2.6028120191767812E-004
  0.35190000000000005         -2.6981564587913454E-004
  0.35300000000000004         -2.7869266341440380E-004
  0.35410000000000003         -2.8684744029305875E-004
  0.35520000000000002         -2.9416562756523490E-004
  0.35630000000000001         -3.0056008836254478E-004
  0.35740000000000005         -3.0590718961320817E-004
  0.35850000000000004         -3.1013620900921524E-004
  0.35960000000000003         -3.1315555679611862E-004
  0.36070000000000002         -3.1488604145124555E-004
  0.36180000000000001         -3.1528613180853426E-004
  0.36290000000000006         -3.1422622851096094E-004
  0.36400000000000005         -3.1166788539849222E-004
  0.36510000000000004         -3.0762361711822450E-004
  0.36620000000000003         -3.0212040292099118E-004
  0.36730000000000002         -2.9510608874261379E-004
  0.36840000000000006         -2.8659179224632680E-004
  0.36950000000000005         -2.7659311308525503E-004
  0.37060000000000004         -2.6519765378907323E-004
  0.37170000000000003         -2.5248024030588567E-004
  0.37280000000000002         -2.3843988310545683E-004
  0.37390000000000001         -2.2316290414892137E-004
  0.37500000000000006         -2.0682803005911410E-004
  0.37610000000000005         -1.8947799981106073E-004
  0.37720000000000004         -1.7126396414823830E-004
  0.37830000000000003         -1.5230823191814125E-004
  0.37940000000000002         -1.3280109851621091E-004
  0.38050000000000006         -1.1290209658909589E-004
  0.38160000000000005         -9.2642265371978283E-005
  0.38270000000000004         -7.2246948548126966E-005
  0.38380000000000003         -5.1901864935643971E-005
  0.38490000000000002         -3.1782510632183403E-005
  0.38600000000000001         -1.2105378118576482E-005
  0.38710000000000000          7.0795895226183347E-006
  0.38819999999999999          2.5626502974773757E-005
  0.38930000000000009          4.3536358134588227E-005
  0.39040000000000008          6.0627407947322354E-005
  0.39150000000000007          7.6781885582022369E-005
  0.39260000000000006          9.1815825726371258E-005
  0.39370000000000005          1.0558279609540477E-004
  0.39480000000000004          1.1809675925178453E-004
  0.39590000000000003          1.2933889229316264E-004
  0.39700000000000002          1.3934794696979225E-004
  0.39810000000000001          1.4807339175604284E-004
  0.39920000000000000          1.5547651855740696E-004
  0.40029999999999999          1.6150575538631529E-004
  0.40140000000000009          1.6619672533124685E-004
  0.40250000000000008          1.6962553490884602E-004
  0.40360000000000007          1.7186300829052925E-004
  0.40470000000000006          1.7295005091000348E-004
  0.40580000000000005          1.7293232667725533E-004
  0.40690000000000004          1.7188546189572662E-004
  0.40800000000000003          1.6989842697512358E-004
  0.40910000000000002          1.6707697068341076E-004
  0.41020000000000001          1.6350735677406192E-004
  0.41130000000000000          1.5929754590615630E-004
  0.41239999999999999          1.5450948558282107E-004
  0.41350000000000009          1.4921047841198742E-004
  0.41460000000000008          1.4349729462992400E-004
  0.41570000000000007          1.3751469668932259E-004
  0.41680000000000006          1.3140463852323592E-004
  0.41790000000000005          1.2527512444648892E-004
  0.41900000000000004          1.1917436495423317E-004
  0.42010000000000003          1.1315997835481539E-004
  0.42120000000000002          1.0731141810538247E-004
  0.42230000000000001          1.0169578308705240E-004
  0.42340000000000000          9.6409443358425051E-005
  0.42449999999999999          9.1518493718467653E-005
  0.42560000000000009          8.7134409113787115E-005
  0.42670000000000008          8.3400518633425236E-005
  0.42780000000000007          8.0411860835738480E-005
  0.42890000000000006          7.8177952673286200E-005
  0.43000000000000005          7.6739925134461373E-005
  0.43110000000000004          7.6091557275503874E-005
  0.43220000000000003          7.6306547271087766E-005
  0.43330000000000002          7.7556804171763361E-005
  0.43440000000000001          8.0017569416668266E-005
  0.43550000000000000          8.3805549365933985E-005
  0.43659999999999999          8.9004679466597736E-005
  0.43770000000000009          9.5627074188087136E-005
  0.43880000000000008          1.0369918891228735E-004
  0.43990000000000007          1.1334916052874178E-004
  0.44100000000000006          1.2477050768211484E-004
  0.44210000000000005          1.3821994070895016E-004
  0.44320000000000004          1.5386388986371458E-004
  0.44430000000000003          1.7176648543681949E-004
  0.44540000000000002          1.9194734340999275E-004
  0.44650000000000001          2.1451362408697605E-004
  0.44760000000000000          2.3964270076248795E-004
  0.44869999999999999          2.6757555315271020E-004
  0.44980000000000009          2.9850698774680495E-004
  0.45090000000000008          3.3260314376093447E-004
  0.45200000000000007          3.6994172842241824E-004
  0.45310000000000006          4.1057070484384894E-004
  0.45420000000000005          4.5454519568011165E-004
  0.45530000000000004          5.0197413656860590E-004
  0.45640000000000003          5.5295723723247647E-004
  0.45750000000000002          6.0753693105652928E-004
  0.45860000000000001          6.6565547604113817E-004
  0.45970000000000000          7.2722119512036443E-004
  0.46079999999999999          7.9214089782908559E-004
  0.46190000000000009          8.6028786608949304E-004
  0.46300000000000008          9.3146302970126271E-004
  0.46410000000000007          1.0054063750430942E-003
  0.46520000000000006          1.0817777365446091E-003
  0.46630000000000005          1.1601975420489907E-003
  0.46740000000000004          1.2402040883898735E-003
  0.46850000000000003          1.3212938793003559E-003
  0.46960000000000002          1.4029055600985885E-003
  0.47070000000000001          1.4844016404822469E-003
  0.47180000000000000          1.5650808345526457E-003
  0.47289999999999999          1.6441611805930734E-003
  0.47400000000000009          1.7208214849233627E-003
  0.47510000000000008          1.7942151753231883E-003
  0.47620000000000007          1.8634720472618937E-003
  0.47730000000000006          1.9276380771771073E-003
  0.47840000000000005          1.9857217557728291E-003