 -0.12000000000000000          0.0000000000000000     
 -0.11889999999999999          0.0000000000000000     
 -0.11780000000000000          0.0000000000000000     
 -0.11670000000000000          0.0000000000000000     
 -0.11559999999999999          0.0000000000000000     
 -0.11449999999999999          0.0000000000000000     
 -0.11340000000000000          0.0000000000000000     
 -0.11230000000000000          0.0000000000000000     
 -0.11119999999999999          0.0000000000000000     
 -0.11009999999999999          0.0000000000000000     
 -0.10900000000000000          0.0000000000000000     
 -0.10790000000000000          6.3658001776433288E-037
 -0.10679999999999999          4.6655304445528778E-034
 -0.10569999999999999          1.1019221651980202E-032
 -0.10460000000000000          1.2412327100578709E-031
 -0.10349999999999999          8.8312692065781307E-031
 -0.10239999999999999          4.4015801438038423E-030
 -0.10130000000000000          1.5826661868253099E-029
 -0.10020000000000000          3.8911508561997546E-029
  -9.9099999999999994E-002     4.3151041845737509E-029
  -9.7999999999999990E-002    -1.4031007631428054E-028
  -9.6899999999999986E-002    -1.0069458008983181E-027
  -9.5799999999999996E-002    -3.4503526244001767E-027
  -9.4699999999999993E-002    -7.9824564677221777E-027
  -9.3599999999999989E-002    -1.1739110323303940E-026
  -9.2499999999999999E-002    -2.4124101206563994E-027
  -9.1399999999999995E-002     4.7630526879652118E-026
  -9.0299999999999991E-002     1.7413086318105087E-025
  -8.9200000000000002E-002     3.7665903432610743E-025
  -8.8099999999999984E-002     5.1839939661397005E-025
  -8.6999999999999994E-002     2.0296609905172151E-025
  -8.5899999999999990E-002    -1.2210949648293334E-024
  -8.4799999999999986E-002    -4.2438144623321563E-024
  -8.3699999999999997E-002    -8.1112210024706999E-024
  -8.2599999999999993E-002    -9.2999228431907910E-024
  -8.1499999999999989E-002    -8.4924410746303979E-025
  -8.0399999999999999E-002     2.4908577858563008E-023
  -7.9299999999999995E-002     6.7706022313648753E-023
  -7.8199999999999992E-002     1.0567837604548807E-022
  -7.7100000000000002E-002     8.5446661617653907E-023
  -7.5999999999999984E-002    -6.5883970034448291E-023
  -7.4899999999999994E-002    -3.8693385129507441E-022
  -7.3799999999999991E-002    -7.8588511643946139E-022
  -7.2699999999999987E-002    -9.4884045091501106E-022
  -7.1599999999999997E-002    -3.5983020706035804E-022
  -7.0499999999999993E-002     1.4372790837520708E-021
  -6.9399999999999989E-002     4.2909710295128495E-021
  -6.8300000000000000E-002     6.8040591406872242E-021
  -6.7199999999999996E-002     6.1305950855246625E-021
  -6.6099999999999992E-002    -1.0758208391702036E-021
  -6.5000000000000002E-002    -1.6135654624214475E-020
  -6.3899999999999985E-002    -3.4825506598438336E-020
  -6.2799999999999995E-002    -4.4996014390498222E-020
  -6.1699999999999991E-002    -2.8635431378786845E-020
  -6.0599999999999994E-002     2.8908780334960152E-020
  -5.9499999999999990E-002     1.2338086778442676E-019
  -5.8399999999999994E-002     2.1669830435155202E-019
  -5.7299999999999990E-002     2.3542011507162522E-019
  -5.6199999999999986E-002     9.5702445095652154E-020
  -5.5099999999999996E-002    -2.4209389413953077E-019
  -5.3999999999999992E-002    -7.0647629156605089E-019
  -5.2899999999999989E-002    -1.0759787309955123E-018
  -5.1799999999999985E-002    -1.0184955612836003E-018
  -5.0699999999999995E-002    -2.3815790608457206E-019
  -4.9599999999999991E-002     1.2975679376357477E-018
  -4.8499999999999988E-002     3.1527188042834694E-018
  -4.7399999999999998E-002     4.3921367713030371E-018
  -4.6299999999999994E-002     3.8529123843211054E-018
  -4.5199999999999990E-002     7.1935692389467691E-019
  -4.4099999999999986E-002    -4.7933557895639481E-018
  -4.2999999999999997E-002    -1.1010535896664698E-017
  -4.1899999999999993E-002    -1.5002083194004050E-017
  -4.0799999999999989E-002    -1.3576283272252832E-017
  -3.9699999999999985E-002    -4.8106493600084643E-018
  -3.8599999999999995E-002     1.0534240030290545E-017
  -3.7499999999999992E-002     2.8495968419442899E-017
  -3.6399999999999988E-002     4.2737408565081615E-017
  -3.5299999999999984E-002     4.6483664315235231E-017
  -3.4199999999999994E-002     3.4682588434056702E-017
  -3.3099999999999991E-002     5.4006156199922823E-018
  -3.1999999999999987E-002    -3.9833847332901384E-017
  -3.0899999999999997E-002    -9.5878189961817823E-017
  -2.9799999999999993E-002    -1.5252315558607966E-016
  -2.8699999999999989E-002    -1.9120429402080742E-016
  -2.7599999999999986E-002    -1.8212160042062021E-016
  -2.6499999999999996E-002    -8.7251622375474033E-017
  -2.5399999999999992E-002     1.2444256456760329E-016
  -2.4299999999999988E-002     4.4784555095341846E-016
  -2.3199999999999985E-002     8.0731800544706940E-016
  -2.2099999999999995E-002     1.0384605360037490E-015
  -2.0999999999999991E-002     9.1369645788981530E-016
  -1.9899999999999987E-002     2.3011562969340179E-016
  -1.8799999999999983E-002    -1.0509415328310291E-015
  -1.7699999999999994E-002    -2.6645788753495342E-015
  -1.6599999999999990E-002    -3.9892952855818768E-015
  -1.5499999999999986E-002    -4.1659797911523956E-015
  -1.4399999999999996E-002    -2.4213872438082459E-015
  -1.3299999999999992E-002     1.4733246930176909E-015
  -1.2199999999999989E-002     6.7917805217345450E-015
  -1.1099999999999985E-002     1.1735491978517533E-014
  -9.9999999999999950E-003     1.3811160369462787E-014
  -8.8999999999999913E-003     1.0726149428549543E-014
  -7.7999999999999875E-003     1.5647013880038002E-015
  -6.6999999999999837E-003    -1.2228658622443249E-014
  -5.5999999999999939E-003    -2.6606675338781717E-014
  -4.4999999999999901E-003    -3.5785493931526528E-014
  -3.3999999999999864E-003    -3.4165845679644727E-014
  -2.2999999999999826E-003    -1.8741415775584479E-014
  -1.1999999999999927E-003     8.9445607145730158E-015
  -9.9999999999988987E-005     4.2241487417533748E-014
   1.0000000000000148E-003     7.0744120072868356E-014
   2.1000000000000185E-003     8.3323059854709602E-014
   3.2000000000000084E-003     7.1863883176805272E-014
   4.3000000000000121E-003     3.4378671189333244E-014
   5.4000000000000159E-003    -2.3632716640463648E-014
   6.5000000000000058E-003    -8.9980215964506609E-014
   7.6000000000000234E-003    -1.4829892193960402E-013
   8.7000000000000133E-003    -1.8132642808108393E-013
   9.8000000000000032E-003    -1.7409871066941018E-013
   1.0900000000000021E-002    -1.1685439102725930E-013
   1.2000000000000011E-002    -8.0738518651670087E-015
   1.3100000000000001E-002     1.4192774916173423E-013
   1.4200000000000018E-002     3.0742819404392584E-013
   1.5300000000000008E-002     4.4595196916714259E-013
   1.6400000000000026E-002     5.0256447057078890E-013
   1.7500000000000016E-002     4.2268957390875954E-013
   1.8600000000000005E-002     1.7329651362344245E-013
   1.9700000000000023E-002    -2.3270331260134235E-013
   2.0800000000000013E-002    -7.1891276385582697E-013
   2.1900000000000003E-002    -1.1466797696319660E-012
   2.3000000000000020E-002    -1.3433979949051583E-012
   2.4100000000000010E-002    -1.1567416657753787E-012
   2.5200000000000000E-002    -5.2113488202273554E-013
   2.6300000000000018E-002     4.8771501460478855E-013
   2.7400000000000008E-002     1.6369856234283946E-012
   2.8500000000000025E-002     2.5775556022008458E-012
   2.9600000000000015E-002     2.9402443887136126E-012
   3.0700000000000005E-002     2.4629718957815665E-012
   3.1800000000000023E-002     1.1064594789783956E-012
   3.2900000000000013E-002    -8.8749438222981542E-013
   3.4000000000000002E-002    -3.0264456591640204E-012
   3.5100000000000020E-002    -4.6883552055616119E-012
   3.6200000000000010E-002    -5.3015870730473438E-012
   3.7300000000000028E-002    -4.5278468974844199E-012
   3.8400000000000017E-002    -2.3874710887096599E-012
   3.9500000000000007E-002     7.1566695914757126E-013
   4.0600000000000025E-002     4.0789462307946930E-012
   4.1700000000000015E-002     6.8693217167426904E-012
   4.2800000000000005E-002     8.3255147243062443E-012
   4.3900000000000022E-002     7.9407501569232292E-012
   4.5000000000000012E-002     5.5871232748156336E-012
   4.6100000000000002E-002     1.5648966592763459E-012
   4.7200000000000020E-002    -3.4222988347645531E-012
   4.8300000000000010E-002    -8.3596792138480210E-012
   4.9400000000000027E-002    -1.2078075980972461E-011
   5.0500000000000017E-002    -1.3474663049345657E-011
   5.1600000000000007E-002    -1.1785225814952542E-011
   5.2700000000000025E-002    -6.8652442960707426E-012
   5.3800000000000014E-002     6.0167970484987963E-013
   5.4900000000000004E-002     9.0734219272876886E-012
   5.6000000000000022E-002     1.6385406564432037E-011
   5.7100000000000012E-002     2.0270578175144818E-011
   5.8200000000000002E-002     1.9068092203673505E-011
   5.9300000000000019E-002     1.2411025533294593E-011
   6.0400000000000009E-002     1.6226731949553375E-012
   6.1500000000000027E-002    -1.0409804115641100E-011
   6.2600000000000017E-002    -1.9964610488922569E-011
   6.3700000000000007E-002    -2.3672303954604563E-011
   6.4800000000000024E-002    -1.9796828479178966E-011
   6.5900000000000014E-002    -9.1314222962595882E-012
   6.7000000000000004E-002     4.9112147090815052E-012
   6.8100000000000022E-002     1.7193547007613823E-011
   6.9200000000000012E-002     2.2554806213525267E-011
   7.0300000000000029E-002     1.7797401145257457E-011
   7.1400000000000019E-002     3.2443480167093417E-012
   7.2500000000000009E-002    -1.6786314877218053E-011
   7.3600000000000027E-002    -3.4926578658527563E-011
   7.4700000000000016E-002    -4.2976869544911767E-011
   7.5800000000000006E-002    -3.4771727848531212E-011
   7.6900000000000024E-002    -8.7675516420499795E-012
   7.8000000000000014E-002     3.0568917311943534E-011
   7.9100000000000004E-002     7.3171486510670985E-011
   8.0200000000000021E-002     1.0564537875669728E-010
   8.1300000000000011E-002     1.1487756013288246E-010
   8.2400000000000029E-002     9.2031680844795584E-011
   8.3500000000000019E-002     3.5816755064577867E-011
   8.4600000000000009E-002    -4.5925572820686262E-011
   8.5700000000000026E-002    -1.3686611861934146E-010
   8.6800000000000016E-002    -2.1508978834120408E-010
   8.7900000000000006E-002    -2.5776140159341014E-010
   8.9000000000000024E-002    -2.4665569135536711E-010
   9.0100000000000013E-002    -1.7340513553520275E-010
   9.1200000000000003E-002    -4.3250563552385463E-011
   9.2300000000000021E-002     1.2379397981537240E-010
   9.3400000000000011E-002     2.9510508547767928E-010
   9.4500000000000028E-002     4.3109798531481668E-010
   9.5600000000000018E-002     4.9370953545918372E-010
   9.6700000000000008E-002     4.5616940450851464E-010
   9.7800000000000026E-002     3.1175374974987272E-010
   9.8900000000000016E-002     7.8906061040669818E-011
  0.10000000000000001         -1.9948419827328902E-010
  0.10110000000000002         -4.6362965597015133E-010
  0.10220000000000001         -6.5034267959836803E-010
  0.10330000000000003         -7.0958271912343305E-010
  0.10440000000000002         -6.1963594788202668E-010
  0.10550000000000001         -3.9614135283384680E-010
  0.10660000000000003         -9.1317452859819560E-011
  0.10770000000000002          2.1772102971560981E-010
  0.10880000000000001          4.4937578443841622E-010
  0.10990000000000003          5.4148008997225560E-010
  0.11100000000000002          4.7175349214173572E-010
  0.11210000000000001          2.6813807952774532E-010
  0.11320000000000002          4.8265767389656376E-012
  0.11430000000000001         -2.1618823110040093E-010
  0.11540000000000003         -2.9381292831863662E-010
  0.11650000000000002         -1.5916981639836246E-010
  0.11760000000000001          1.9938716720190636E-010
  0.11870000000000003          7.2515637920973854E-010
  0.11980000000000002          1.2998812107027345E-009
  0.12090000000000001          1.7676328491438458E-009
  0.12200000000000003          1.9703034434825314E-009
  0.12310000000000001          1.7860758446428851E-009
  0.12420000000000003          1.1614303038387412E-009
  0.12530000000000002          1.2895124447219861E-010
  0.12640000000000001         -1.1931522109774201E-009
  0.12750000000000003         -2.6193313583794884E-009
  0.12860000000000002         -3.9280232376167229E-009
  0.12970000000000001         -4.8983145267881015E-009
  0.13080000000000003         -5.3432988761458859E-009
  0.13190000000000002         -5.1327706508776213E-009
  0.13300000000000001         -4.2010894209341325E-009
  0.13410000000000000         -2.5404503502747798E-009
  0.13520000000000004         -1.8441257520274278E-010
  0.13630000000000003          2.8098427498604467E-009
  0.13740000000000002          6.3705129802842162E-009
  0.13850000000000001          1.0402729283690601E-008
  0.13960000000000000          1.4758236849742309E-008
  0.14070000000000005          1.9185250719997004E-008
  0.14180000000000004          2.3267570545058405E-008
  0.14290000000000003          2.6367458959449639E-008
  0.14400000000000002          2.7588278615410687E-008
  0.14510000000000001          2.5769456993040249E-008
  0.14620000000000000          1.9517437046286902E-008
  0.14730000000000004          7.2644370380118989E-009
  0.14840000000000003         -1.2665127527070614E-008
  0.14950000000000002         -4.2009153003904460E-008
  0.15060000000000001         -8.2572938980049593E-008
  0.15170000000000000         -1.3630786120797240E-007
  0.15280000000000005         -2.0547323585599306E-007
  0.15390000000000004         -2.9287337307976748E-007
  0.15500000000000003         -4.0214775577298315E-007
  0.15610000000000002         -5.3808316112005050E-007
  0.15720000000000001         -7.0691729686634722E-007
  0.15830000000000000         -9.1661554381791957E-007
  0.15940000000000004         -1.1771193953531870E-006
  0.16050000000000003         -1.5005862020179952E-006
  0.16160000000000002         -1.9016566533153458E-006
  0.16270000000000001         -2.3977921441149119E-006
  0.16380000000000000         -3.0097286300573327E-006
  0.16490000000000005         -3.7620771236546507E-006
  0.16600000000000004         -4.6840882212181128E-006
  0.16710000000000003         -5.8105746614920527E-006
  0.16820000000000002         -7.1829769861542869E-006
  0.16930000000000001         -8.8505501677512121E-006
  0.17040000000000000         -1.0871640887442694E-005
  0.17150000000000004         -1.3315045168165132E-005
  0.17260000000000003         -1.6261444030756925E-005
  0.17370000000000002         -1.9804936145173921E-005
  0.17480000000000001         -2.4054694003826836E-005
  0.17590000000000000         -2.9136786862053908E-005
  0.17700000000000005         -3.5196215934506285E-005
  0.17810000000000004         -4.2399190833507002E-005
  0.17920000000000003         -5.0935668254863486E-005
  0.18030000000000002         -6.1022110713644076E-005
  0.18140000000000001         -7.2904445042247323E-005
  0.18250000000000000         -8.6861161618926827E-005
  0.18360000000000004         -1.0320639267653826E-004
  0.18470000000000003         -1.2229297428869359E-004
  0.18580000000000002         -1.4451531557841381E-004
  0.18690000000000001         -1.7031210554612267E-004
  0.18800000000000000         -2.0016876892874828E-004
  0.18910000000000005         -2.3461956299845069E-004
  0.19020000000000004         -2.7424952150078321E-004
  0.19130000000000003         -3.1969598630934051E-004
  0.19240000000000002         -3.7164949515652076E-004
  0.19350000000000001         -4.3085433030339774E-004
  0.19460000000000005         -4.9810811594375604E-004
  0.19570000000000004         -5.7426050496011457E-004
  0.19680000000000003         -6.6021063850960678E-004
  0.19790000000000002         -7.5690275804136411E-004
  0.19900000000000001         -8.6532083756753588E-004
  0.20010000000000000         -9.8648112927435553E-004
  0.20120000000000005         -1.1214231047816244E-003
  0.20230000000000004         -1.2711986210414651E-003
  0.20340000000000003         -1.4368593266751320E-003
  0.20450000000000002         -1.6194419030438618E-003
  0.20560000000000000         -1.8199513620834485E-003
  0.20670000000000005         -2.0393429007591825E-003
  0.20780000000000004         -2.2785009482754375E-003
  0.20890000000000003         -2.5382165461548317E-003
  0.21000000000000002         -2.8191632572027209E-003
  0.21110000000000001         -3.1218700251064179E-003
  0.21220000000000000         -3.4466940981517967E-003
  0.21330000000000005         -3.7937925945600703E-003
  0.21440000000000003         -4.1630935448682032E-003
  0.21550000000000002         -4.5542669767885931E-003
  0.21660000000000001         -4.9666971017412317E-003
  0.21770000000000000         -5.3994564920365404E-003
  0.21880000000000005         -5.8512787217665707E-003
  0.21990000000000004         -6.3205366447020798E-003
  0.22100000000000003         -6.8052234813400633E-003
  0.22210000000000002         -7.3029358208546134E-003
  0.22320000000000001         -7.8108634220725032E-003
  0.22430000000000000         -8.3257822366166433E-003
  0.22540000000000004         -8.8440562444753804E-003
  0.22650000000000003         -9.3616404534107925E-003
  0.22760000000000002         -9.8741005346254726E-003
  0.22870000000000001         -1.0376633086136969E-002
  0.22980000000000000         -1.0864096406702191E-002
  0.23090000000000005         -1.1331046907994302E-002
  0.23200000000000004         -1.1771789175483213E-002
  0.23310000000000003         -1.2180429503011314E-002
  0.23420000000000002         -1.2550939968585121E-002
  0.23530000000000001         -1.2877222113286270E-002
  0.23640000000000000         -1.3153191987858234E-002
  0.23750000000000004         -1.3372857809143808E-002
  0.23860000000000003         -1.3530407657066800E-002
  0.23970000000000002         -1.3620301504266021E-002
  0.24080000000000001         -1.3637367470132699E-002
  0.24190000000000000         -1.3576892920460578E-002
  0.24300000000000005         -1.3434717748424540E-002
  0.24410000000000004         -1.3207324193540681E-002
  0.24520000000000003         -1.2891920661111726E-002
  0.24630000000000002         -1.2486520317988546E-002
  0.24740000000000001         -1.1990006859337102E-002
  0.24850000000000005         -1.1402198588710392E-002
  0.24960000000000004         -1.0723893588060222E-002
  0.25070000000000003         -9.9569053996694749E-003
  0.25180000000000002         -9.1040869320753934E-003
  0.25290000000000001         -8.1693321429994539E-003
  0.25400000000000000         -7.1575694677654244E-003
  0.25510000000000005         -6.0747286414265887E-003
  0.25620000000000004         -4.9276988900560422E-003
  0.25730000000000003         -3.7242683449174238E-003
  0.25840000000000002         -2.4730459566362486E-003
  0.25950000000000001         -1.1833727734293716E-003
  0.26060000000000005          1.3478297451346595E-004
  0.26170000000000004          1.4709422400161591E-003
  0.26280000000000003          2.8142430782916701E-003
  0.26390000000000002          4.1535765051566847E-003
  0.26500000000000001          5.4777295736189342E-003
  0.26610000000000000          6.7755318938792428E-003
  0.26720000000000005          8.0360013471613024E-003
  0.26830000000000004          9.2484900506825049E-003
  0.26940000000000003          1.0402823099939722E-002
  0.27050000000000002          1.1489434606555410E-002
  0.27160000000000001          1.2499493111379182E-002
  0.27270000000000005          1.3425014343623996E-002
  0.27380000000000004          1.4258964110751234E-002
  0.27490000000000003          1.4995342639594605E-002
  0.27600000000000002          1.5629253147483754E-002
  0.27710000000000001          1.6156955703607406E-002
  0.27820000000000000          1.6575900087658389E-002
  0.27930000000000005          1.6884744329606551E-002
  0.28040000000000004          1.7083350978804132E-002
  0.28150000000000003          1.7172760545354913E-002
  0.28260000000000002          1.7155157955718831E-002
  0.28370000000000001          1.7033818168002715E-002
  0.28480000000000005          1.6813023498693104E-002
  0.28590000000000004          1.6497984284786556E-002
  0.28700000000000003          1.6094740969087865E-002
  0.28810000000000002          1.5610059314701927E-002
  0.28920000000000001          1.5051316339941126E-002
  0.29030000000000000          1.4426385884188351E-002
  0.29140000000000005          1.3743518276643992E-002
  0.29250000000000004          1.3011210033213861E-002
  0.29360000000000003          1.2238088282027788E-002
  0.29470000000000002          1.1432786833378734E-002
  0.29580000000000001          1.0603833652638036E-002
  0.29690000000000005          9.7595431863940485E-003
  0.29800000000000004          8.9079213142911860E-003
  0.29910000000000003          8.0565761205843491E-003
  0.30020000000000002          7.2126451283606591E-003
  0.30130000000000001          6.3827296849068640E-003
  0.30240000000000000          5.5728427398167796E-003
  0.30350000000000005          4.7883678359727649E-003
  0.30460000000000004          4.0340315750230357E-003
  0.30570000000000003          3.3138874126221814E-003
  0.30680000000000002          2.6313092168173181E-003
  0.30790000000000001          1.9889983592822052E-003
  0.30900000000000005          1.3889981496598004E-003
  0.31010000000000004          8.3271936573488194E-004
  0.31120000000000003          3.2097414744955828E-004
  0.31230000000000002         -1.4598330423985938E-004
  0.31340000000000001         -5.6840998801502068E-004
  0.31450000000000006         -9.4702344854947097E-004
  0.31560000000000005         -1.2829486691476343E-003
  0.31670000000000004         -1.5776630795770236E-003
  0.31780000000000003         -1.8329418785147465E-003
  0.31890000000000002         -2.0508039504417491E-003
  0.32000000000000001         -2.2334576054838140E-003
  0.32110000000000005         -2.3832497528669611E-003
  0.32220000000000004         -2.5026178978458068E-003
  0.32330000000000003         -2.5940450189515891E-003
  0.32440000000000002         -2.6600199786995147E-003
  0.32550000000000001         -2.7030024100197780E-003
  0.32660000000000006         -2.7253922849532096E-003
  0.32770000000000005         -2.7295033619045379E-003
  0.32880000000000004         -2.7175421435511973E-003
  0.32990000000000003         -2.6915907880850553E-003
  0.33100000000000002         -2.6535946157691353E-003
  0.33210000000000001         -2.6053543041016092E-003
  0.33320000000000005         -2.5485213688234412E-003
  0.33430000000000004         -2.4845976115722848E-003
  0.33540000000000003         -2.4149393578075553E-003
  0.33650000000000002         -2.3407619640944373E-003
  0.33760000000000001         -2.2631478934931342E-003
  0.33870000000000006         -2.1830560120243321E-003
  0.33980000000000005         -2.1013312842621343E-003
  0.34090000000000004         -2.0187140446914298E-003
  0.34200000000000003         -1.9358526315681550E-003
  0.34310000000000002         -1.8533108669739192E-003
  0.34420000000000001         -1.7715790819710713E-003
  0.34530000000000005         -1.6910828254352659E-003
  0.34640000000000004         -1.6121906054648860E-003
  0.34750000000000003         -1.5352210465665185E-003
  0.34860000000000002         -1.4604486617048633E-003
  0.34970000000000001         -1.3881088692697847E-003
  0.35080000000000006         -1.3184027729915564E-003
  0.35190000000000005         -1.2515003953572357E-003
  0.35300000000000004         -1.1875430703087763E-003
  0.35410000000000003         -1.1266449221689219E-003
  0.35520000000000002         -1.0688918211916004E-003
  0.35630000000000001         -1.0143397465373267E-003
  0.35740000000000005         -9.6301203426940292E-004
  0.35850000000000004         -9.1489604124665833E-004
  0.35960000000000003         -8.6994137899800144E-004
  0.36070000000000002         -8.2805824592529196E-004
  0.36180000000000001         -7.8911702865377454E-004
  0.36290000000000006         -7.5294871012331977E-004
  0.36400000000000005         -7.1934507706151497E-004
  0.36510000000000004         -6.8806006516807633E-004
  0.36620000000000003         -6.5881048665335934E-004
  0.36730000000000002         -6.3127791976349190E-004
  0.36840000000000006         -6.0510994050309332E-004
  0.36950000000000005         -5.7992144692992141E-004
  0.37060000000000004         -5.5529526541084578E-004
  0.37170000000000003         -5.3078215068632013E-004
  0.37280000000000002         -5.0590133072632350E-004
  0.37390000000000001         -4.8014125578727408E-004
  0.37500000000000006         -4.5296140209435639E-004
  0.37610000000000005         -4.2379443845529785E-004
  0.37720000000000004         -3.9204793178168747E-004
  0.37830000000000003         -3.5710445090596953E-004
  0.37940000000000002         -3.1831932890732446E-004
  0.38050000000000006         -2.7501569567642530E-004
  0.38160000000000005         -2.2647753198115958E-004
  0.38270000000000004         -1.7194121928067413E-004
  0.38380000000000003         -1.1058617917888283E-004
  0.38490000000000002         -4.1524965918923660E-005
  0.38600000000000001          3.6207458441425312E-005
  0.38710000000000000          1.2366474482014588E-004
  0.38819999999999999          2.2200009031576732E-004
  0.38930000000000009          3.3247609218140130E-004
  0.39040000000000008          4.5647230205418166E-004
  0.39150000000000007          5.9549078491078389E-004
  0.39260000000000006          7.5115912749500950E-004
  0.39370000000000005          9.2523219886948621E-004
  0.39480000000000004          1.1195922538257126E-003
  0.39590000000000003          1.3362476893606502E-003
  0.39700000000000002          1.5773283629994252E-003
  0.39810000000000001          1.8450760515137110E-003
  0.39920000000000000          2.1418256948693396E-003
  0.40029999999999999          2.4699798893622000E-003
  0.40140000000000009          2.8319732060461521E-003
  0.40250000000000008          3.2302310323830937E-003
  0.40360000000000007          3.6671207721584755E-003
  0.40470000000000006          4.1449004803173380E-003
  0.40580000000000005          4.6656629609129596E-003
  0.40690000000000004          5.2312766798058245E-003
  0.40800000000000003          5.8433208237060235E-003
  0.40910000000000002          6.5030200707530614E-003
  0.41020000000000001          7.2111693510296011E-003
  0.41130000000000000          7.9680630216770083E-003
  0.41239999999999999          8.7734174247454423E-003
  0.41350000000000009          9.6263024654389996E-003
  0.41460000000000008          1.0525068008663757E-002
  0.41570000000000007          1.1467282256616210E-002
  0.41680000000000006          1.2449672178859152E-002
  0.41790000000000005          1.3468079690015016E-002
  0.41900000000000004          1.4517426250069708E-002
  0.42010000000000003          1.5591689407230026E-002
  0.42120000000000002          1.6683895606601079E-002
  0.42230000000000001          1.7786128845935091E-002
  0.42340000000000000          1.8889555769818468E-002
  0.42449999999999999          1.9984460233057347E-002
  0.42560000000000009          2.1060305189848087E-002
  0.42670000000000008          2.2105807122362348E-002
  0.42780000000000007          2.3109034930785248E-002
  0.42890000000000006          2.4057521531881211E-002
  0.43000000000000005          2.4938400512327891E-002
  0.43110000000000004          2.5738546736664491E-002
  0.43220000000000003          2.6444743562456949E-002
  0.43330000000000002          2.7043854934722427E-002
  0.43440000000000001          2.7523002535448367E-002
  0.43550000000000000          2.7869760774021906E-002
  0.43659999999999999          2.8072355356265986E-002
  0.43770000000000009          2.8119852085710318E-002
  0.43880000000000008          2.8002360663837215E-002
  0.43990000000000007          2.7711222441570132E-002
  0.44100000000000006          2.7239189500004313E-002
  0.44210000000000005          2.6580592931493487E-002
  0.44320000000000004          2.5731490891923205E-002
  0.44430000000000003          2.4689801234338581E-002
  0.44540000000000002          2.3455399302274700E-002
  0.44650000000000001          2.2030211768209056E-002
  0.44760000000000000          2.0418262884981393E-002
  0.44869999999999999          1.8625700311203974E-002
  0.44980000000000009          1.6660794006097358E-002
  0.45090000000000008          1.4533906414851819E-002
  0.45200000000000007          1.2257420811689403E-002
  0.45310000000000006          9.8456441120679146E-003
  0.45420000000000005          7.3146836805388984E-003
  0.45530000000000004          4.6822853286027566E-003
  0.45640000000000003          1.9676482691625198E-003
  0.45750000000000002         -8.0878705083583906E-004
  0.45860000000000001         -3.6255739839326840E-003
  0.45970000000000000         -6.4605119067351760E-003
  0.46079999999999999         -9.2909115450417294E-003
  0.46190000000000009         -1.2093866964063685E-002
  0.46300000000000008         -1.4846533028772188E-002
  0.46410000000000007         -1.7526405133740146E-002
  0.46520000000000006         -2.0111596422802754E-002
  0.46630000000000005         -2.2581104546501061E-002
  0.46740000000000004         -2.4915067224859765E-002
  0.46850000000000003         -2.7095007481180145E-002
  0.46960000000000002         -2.9104056007269952E-002
  0.47070000000000001         -3.0927158247738944E-002
  0.47180000000000000         -3.2551232954371297E-002
  0.47289999999999999         -3.3965331119549004E-002
  0.47400000000000009         -3.5160732160966976E-002
  0.47510000000000008         -3.6131037193564558E-002
  0.47620000000000007         -3.6872213201759541E-002
  0.47730000000000006         -3.7382597718694829E-002
  0.47840000000000005         -3.7662877824324509E-002