 -0.12000000000000000          0.0000000000000000     
 -0.11889999999999999          0.0000000000000000     
 -0.11780000000000000          0.0000000000000000     
 -0.11670000000000000          0.0000000000000000     
 -0.11559999999999999          0.0000000000000000     
 -0.11449999999999999          0.0000000000000000     
 -0.11340000000000000          0.0000000000000000     
 -0.11230000000000000          0.0000000000000000     
 -0.11119999999999999          0.0000000000000000     
 -0.11009999999999999          0.0000000000000000     
 -0.10900000000000000          0.0000000000000000     
 -0.10790000000000000          0.0000000000000000     
 -0.10679999999999999          0.0000000000000000     
 -0.10569999999999999          0.0000000000000000     
 -0.10460000000000000          0.0000000000000000     
 -0.10349999999999999          0.0000000000000000     
 -0.10239999999999999          0.0000000000000000     
 -0.10130000000000000          0.0000000000000000     
 -0.10020000000000000          0.0000000000000000     
  -9.9099999999999994E-002     0.0000000000000000     
  -9.7999999999999990E-002     0.0000000000000000     
  -9.6899999999999986E-002     0.0000000000000000     
  -9.5799999999999996E-002     0.0000000000000000     
  -9.4699999999999993E-002     0.0000000000000000     
  -9.3599999999999989E-002     0.0000000000000000     
  -9.2499999999999999E-002     0.0000000000000000     
  -9.1399999999999995E-002     0.0000000000000000     
  -9.0299999999999991E-002     0.0000000000000000     
  -8.9200000000000002E-002     0.0000000000000000     
  -8.8099999999999984E-002     0.0000000000000000     
  -8.6999999999999994E-002     0.0000000000000000     
  -8.5899999999999990E-002     0.0000000000000000     
  -8.4799999999999986E-002     0.0000000000000000     
  -8.3699999999999997E-002     0.0000000000000000     
  -8.2599999999999993E-002     0.0000000000000000     
  -8.1499999999999989E-002     0.0000000000000000     
  -8.0399999999999999E-002     0.0000000000000000     
  -7.9299999999999995E-002     0.0000000000000000     
  -7.8199999999999992E-002     0.0000000000000000     
  -7.7100000000000002E-002     0.0000000000000000     
  -7.5999999999999984E-002     0.0000000000000000     
  -7.4899999999999994E-002     0.0000000000000000     
  -7.3799999999999991E-002     0.0000000000000000     
  -7.2699999999999987E-002     0.0000000000000000     
  -7.1599999999999997E-002     0.0000000000000000     
  -7.0499999999999993E-002     0.0000000000000000     
  -6.9399999999999989E-002     0.0000000000000000     
  -6.8300000000000000E-002     0.0000000000000000     
  -6.7199999999999996E-002     0.0000000000000000     
  -6.6099999999999992E-002     0.0000000000000000     
  -6.5000000000000002E-002     0.0000000000000000     
  -6.3899999999999985E-002     0.0000000000000000     
  -6.2799999999999995E-002     0.0000000000000000     
  -6.1699999999999991E-002     0.0000000000000000     
  -6.0599999999999994E-002     0.0000000000000000     
  -5.9499999999999990E-002     0.0000000000000000     
  -5.8399999999999994E-002     0.0000000000000000     
  -5.7299999999999990E-002     0.0000000000000000     
  -5.6199999999999986E-002     0.0000000000000000     
  -5.5099999999999996E-002     0.0000000000000000     
  -5.3999999999999992E-002     0.0000000000000000     
  -5.2899999999999989E-002     0.0000000000000000     
  -5.1799999999999985E-002     0.0000000000000000     
  -5.0699999999999995E-002     0.0000000000000000     
  -4.9599999999999991E-002     0.0000000000000000     
  -4.8499999999999988E-002     0.0000000000000000     
  -4.7399999999999998E-002     0.0000000000000000     
  -4.6299999999999994E-002     0.0000000000000000     
  -4.5199999999999990E-002     0.0000000000000000     
  -4.4099999999999986E-002     0.0000000000000000     
  -4.2999999999999997E-002     0.0000000000000000     
  -4.1899999999999993E-002     0.0000000000000000     
  -4.0799999999999989E-002     0.0000000000000000     
  -3.9699999999999985E-002     0.0000000000000000     
  -3.8599999999999995E-002     0.0000000000000000     
  -3.7499999999999992E-002     0.0000000000000000     
  -3.6399999999999988E-002     0.0000000000000000     
  -3.5299999999999984E-002     0.0000000000000000     
  -3.4199999999999994E-002     0.0000000000000000     
  -3.3099999999999991E-002     0.0000000000000000     
  -3.1999999999999987E-002     0.0000000000000000     
  -3.0899999999999997E-002     0.0000000000000000     
  -2.9799999999999993E-002     0.0000000000000000     
  -2.8699999999999989E-002     0.0000000000000000     
  -2.7599999999999986E-002     0.0000000000000000     
  -2.6499999999999996E-002     0.0000000000000000     
  -2.5399999999999992E-002     0.0000000000000000     
  -2.4299999999999988E-002     0.0000000000000000     
  -2.3199999999999985E-002     0.0000000000000000     
  -2.2099999999999995E-002     0.0000000000000000     
  -2.0999999999999991E-002     0.0000000000000000     
  -1.9899999999999987E-002     0.0000000000000000     
  -1.8799999999999983E-002     0.0000000000000000     
  -1.7699999999999994E-002     0.0000000000000000     
  -1.6599999999999990E-002     0.0000000000000000     
  -1.5499999999999986E-002     0.0000000000000000     
  -1.4399999999999996E-002     0.0000000000000000     
  -1.3299999999999992E-002     0.0000000000000000     
  -1.2199999999999989E-002     0.0000000000000000     
  -1.1099999999999985E-002     0.0000000000000000     
  -9.9999999999999950E-003     0.0000000000000000     
  -8.8999999999999913E-003     0.0000000000000000     
  -7.7999999999999875E-003     0.0000000000000000     
  -6.6999999999999837E-003     0.0000000000000000     
  -5.5999999999999939E-003     0.0000000000000000     
  -4.4999999999999901E-003     0.0000000000000000     
  -3.3999999999999864E-003     0.0000000000000000     
  -2.2999999999999826E-003     0.0000000000000000     
  -1.1999999999999927E-003     0.0000000000000000     
  -9.9999999999988987E-005     0.0000000000000000     
   1.0000000000000148E-003     0.0000000000000000     
   2.1000000000000185E-003     0.0000000000000000     
   3.2000000000000084E-003     0.0000000000000000     
   4.3000000000000121E-003     0.0000000000000000     
   5.4000000000000159E-003     0.0000000000000000     
   6.5000000000000058E-003     0.0000000000000000     
   7.6000000000000234E-003     0.0000000000000000     
   8.7000000000000133E-003     0.0000000000000000     
   9.8000000000000032E-003     0.0000000000000000     
   1.0900000000000021E-002     0.0000000000000000     
   1.2000000000000011E-002     0.0000000000000000     
   1.3100000000000001E-002     0.0000000000000000     
   1.4200000000000018E-002     0.0000000000000000     
   1.5300000000000008E-002     0.0000000000000000     
   1.6400000000000026E-002     0.0000000000000000     
   1.7500000000000016E-002     0.0000000000000000     
   1.8600000000000005E-002     0.0000000000000000     
   1.9700000000000023E-002     0.0000000000000000     
   2.0800000000000013E-002     0.0000000000000000     
   2.1900000000000003E-002     0.0000000000000000     
   2.3000000000000020E-002     0.0000000000000000     
   2.4100000000000010E-002     0.0000000000000000     
   2.5200000000000000E-002     0.0000000000000000     
   2.6300000000000018E-002     0.0000000000000000     
   2.7400000000000008E-002     0.0000000000000000     
   2.8500000000000025E-002     0.0000000000000000     
   2.9600000000000015E-002     0.0000000000000000     
   3.0700000000000005E-002     0.0000000000000000     
   3.1800000000000023E-002     0.0000000000000000     
   3.2900000000000013E-002     0.0000000000000000     
   3.4000000000000002E-002     0.0000000000000000     
   3.5100000000000020E-002     0.0000000000000000     
   3.6200000000000010E-002     0.0000000000000000     
   3.7300000000000028E-002     0.0000000000000000     
   3.8400000000000017E-002     0.0000000000000000     
   3.9500000000000007E-002     0.0000000000000000     
   4.0600000000000025E-002     0.0000000000000000     
   4.1700000000000015E-002     0.0000000000000000     
   4.2800000000000005E-002     0.0000000000000000     
   4.3900000000000022E-002     0.0000000000000000     
   4.5000000000000012E-002     0.0000000000000000     
   4.6100000000000002E-002     0.0000000000000000     
   4.7200000000000020E-002     0.0000000000000000     
   4.8300000000000010E-002     0.0000000000000000     
   4.9400000000000027E-002     0.0000000000000000     
   5.0500000000000017E-002     0.0000000000000000     
   5.1600000000000007E-002     0.0000000000000000     
   5.2700000000000025E-002     0.0000000000000000     
   5.3800000000000014E-002     0.0000000000000000     
   5.4900000000000004E-002     0.0000000000000000     
   5.6000000000000022E-002     0.0000000000000000     
   5.7100000000000012E-002     0.0000000000000000     
   5.8200000000000002E-002     0.0000000000000000     
   5.9300000000000019E-002     0.0000000000000000     
   6.0400000000000009E-002     0.0000000000000000     
   6.1500000000000027E-002     0.0000000000000000     
   6.2600000000000017E-002    -1.4012984643248171E-045
   6.3700000000000007E-002    -4.2038953929744512E-045
   6.4800000000000024E-002    -4.2038953929744512E-045
   6.5900000000000014E-002     1.4012984643248171E-045
   6.7000000000000004E-002     1.1210387714598537E-044
   6.8100000000000022E-002     1.8216880036222622E-044
   6.9200000000000012E-002     1.1210387714598537E-044
   7.0300000000000029E-002    -1.5414283107572988E-044
   7.1400000000000019E-002    -4.4841550858394146E-044
   7.2500000000000009E-002    -5.3249341644343049E-044
   7.3600000000000027E-002    -1.4012984643248171E-044
   7.4700000000000016E-002     6.7262326287591219E-044
   7.5800000000000006E-002     1.4153114489680652E-043
   7.6900000000000024E-002     1.3452465257518244E-043
   7.8000000000000014E-002    -4.2038953929744512E-045
   7.9100000000000004E-002    -2.3541814200656927E-043
   8.0200000000000021E-002    -4.2179083776176994E-043
   8.1300000000000011E-002    -3.7554798843905098E-043
   8.2400000000000029E-002     2.6624670822171524E-044
   8.3500000000000019E-002     7.0765572448403262E-043
   8.4600000000000009E-002     1.3242270487869521E-042
   8.5700000000000026E-002     1.3102140641437040E-042
   8.6800000000000016E-002     1.2331426486058390E-043
   8.7900000000000006E-002    -2.2757087060635029E-042
   8.9000000000000024E-002    -4.8681108650644145E-042
   9.0100000000000013E-002    -5.3613679245067501E-042
   9.1200000000000003E-002    -1.0565790421009121E-042
   9.2300000000000021E-002     8.7370959250652344E-042
   9.3400000000000011E-002     1.9626586291333388E-041
   9.4500000000000028E-002     2.1217060048342055E-041
   9.5600000000000018E-002     2.0711191302720796E-042
   9.6700000000000008E-002    -3.8601568796755736E-041
   9.7800000000000026E-002    -7.8799216544377438E-041
   9.8900000000000016E-002    -7.4720036714727896E-041
  0.10000000000000001          1.2742006936105562E-041
  0.10110000000000002          1.7041050494807668E-040
  0.10220000000000001          2.9679081084860328E-040
  0.10330000000000003          2.2838082111873004E-040
  0.10440000000000002         -1.4262275640051556E-040
  0.10550000000000001         -7.0305666292411857E-040
  0.10660000000000003         -1.0396345410702964E-039
  0.10770000000000002         -6.0445149388497417E-040
  0.10880000000000001          8.3687225847635265E-040
  0.10990000000000003          2.6957114869847944E-039
  0.11100000000000002          3.4553021351536334E-039
  0.11210000000000001          1.4069821308961185E-039
  0.11320000000000002         -3.8182160166383318E-039
  0.11430000000000001         -9.7802239032070926E-039
  0.11540000000000003         -1.1286918228929172E-038
  0.11650000000000002         -3.1210097748027694E-039
  0.11760000000000001          1.5041048662898537E-038
  0.11870000000000003          3.4372887236544307E-038
  0.11980000000000002          3.7700172349191083E-038
  0.12090000000000001          8.5180715737928012E-039
  0.12200000000000003         -5.3508598675824712E-038
  0.12310000000000001         -1.1923238332749514E-037
  0.12420000000000003         -1.3217506741407973E-037
  0.12530000000000002         -3.6246672714473238E-038
  0.12640000000000001          1.7479086305406663E-037
  0.12750000000000003          4.1112110462587106E-037
  0.12860000000000002          4.8565161852589595E-037
  0.12970000000000001          1.9488232170314899E-037
  0.13080000000000003         -5.1975164492546693E-037
  0.13190000000000002         -1.4000823614655374E-036
  0.13300000000000001         -1.8251540761374126E-036
  0.13410000000000000         -1.0347094590148664E-036
  0.13520000000000004          1.3402123442031559E-036
  0.13630000000000003          4.6292117631478098E-036
  0.13740000000000002          6.8063074416903804E-036
  0.13850000000000001          5.0547684840337694E-036
  0.13960000000000000         -2.5186900034040524E-036
  0.14070000000000005         -1.4498289322695075E-035
  0.14180000000000004         -2.4550101941708807E-035
  0.14290000000000003         -2.2594627198072288E-035
  0.14400000000000002         -9.4884407725506005E-038
  0.14510000000000001          4.1551541338674856E-035
  0.14620000000000000          8.3942924029433052E-035
  0.14730000000000004          9.2847930845666476E-035
  0.14840000000000003          3.3317421520468107E-035
  0.14950000000000002         -1.0244914255827363E-034
  0.15060000000000001         -2.6696957554549697E-034
  0.15170000000000000         -3.5153739420853707E-034
  0.15280000000000005         -2.2453581364312112E-034
  0.15390000000000004          1.8221100307749970E-034
  0.15500000000000003          7.7031627952647452E-034
  0.15610000000000002          1.2229193948997242E-033
  0.15720000000000001          1.0829724761660115E-033
  0.15830000000000000         -1.1686439070976506E-036
  0.15940000000000004         -1.9265891395786579E-033
  0.16050000000000003         -3.8721985124375897E-033
  0.16160000000000002         -4.3825423235829629E-033
  0.16270000000000001         -1.9894516387247568E-033
  0.16380000000000000          3.7020188891911855E-033
  0.16490000000000005          1.0932982756830237E-032
  0.16600000000000004          1.5514604966958539E-032
  0.16710000000000003          1.2132190502128456E-032
  0.16820000000000002         -2.5976226611394532E-033
  0.16930000000000001         -2.6289546181740566E-032
  0.17040000000000000         -4.8383902900926117E-032
  0.17150000000000004         -5.1895395461684119E-032
  0.17260000000000003         -2.0965184192625355E-032
  0.17370000000000002          4.7108388674528238E-032
  0.17480000000000001          1.3074760353461720E-031
  0.17590000000000000          1.8230486804628729E-031
  0.17700000000000005          1.4323286992806245E-031
  0.17810000000000004         -2.2783122940370486E-032
  0.17920000000000003         -2.8947561665129239E-031
  0.18030000000000002         -5.4332721872407889E-031
  0.18140000000000001         -6.0198067226796244E-031
  0.18250000000000000         -2.9188251186426207E-031
  0.18360000000000004          4.2824754429270180E-031
  0.18470000000000003          1.3512616012419851E-030
  0.18580000000000002          1.9955496787694886E-030
  0.18690000000000001          1.7452190349257201E-030
  0.18800000000000000          1.7087270353185670E-031
  0.18910000000000005         -2.5650654069971190E-030
  0.19020000000000004         -5.4312642548104883E-030
  0.19130000000000003         -6.6416747375132165E-030
  0.19240000000000002         -4.3337952693347655E-030
  0.19350000000000001          2.2745663344343397E-030
  0.19460000000000005          1.1697589164015746E-029
  0.19570000000000004          1.9705796208823158E-029
  0.19680000000000003          2.0305104982431701E-029
  0.19790000000000002          8.4400900639887887E-030
  0.19900000000000001         -1.6236529826665056E-029
  0.20010000000000000         -4.6252266875928882E-029
  0.20120000000000005         -6.6203107577519935E-029
  0.20230000000000004         -5.7505908875220988E-029
  0.20340000000000003         -7.9661427787993948E-030
  0.20450000000000002          7.6884652086831813E-029
  0.20560000000000000          1.6659020777638730E-028
  0.20670000000000005          2.0952016123881314E-028
  0.20780000000000004          1.5166091644117000E-028
  0.20890000000000003         -3.2205090575692933E-029
  0.21000000000000002         -3.0654798220630737E-028
  0.21110000000000001         -5.6104115950373878E-028
  0.21220000000000000         -6.3296433920139956E-028
  0.21330000000000005         -3.7341087727158792E-028
  0.21440000000000003          2.5710442533840453E-028
  0.21550000000000002          1.1033240502386375E-027
  0.21660000000000001          1.7958252877381116E-027
  0.21770000000000000          1.8453045465323586E-027
  0.21880000000000005          8.5859748035631254E-028
  0.21990000000000004         -1.1814667318022052E-027
  0.22100000000000003         -3.6983174350741326E-027
  0.22210000000000002         -5.5242084151740734E-027
  0.22320000000000001         -5.2404653935133796E-027
  0.22430000000000000         -1.8436653875566906E-027
  0.22540000000000004          4.4644535225093416E-027
  0.22650000000000003          1.1741744676979752E-026
  0.22760000000000002          1.6459102075322292E-026
  0.22870000000000001          1.4618574027645008E-026
  0.22980000000000000          3.7190439079496391E-027
  0.23090000000000005         -1.5077050124998145E-026
  0.23200000000000004         -3.5664894563107707E-026
  0.23310000000000003         -4.7763192043295712E-026
  0.23420000000000002         -4.0350540369357945E-026
  0.23530000000000001         -7.2597921549957078E-027
  0.23640000000000000          4.7008942410291272E-026
  0.23750000000000004          1.0428119939058915E-025
  0.23860000000000003          1.3552185384842632E-025
  0.23970000000000002          1.1085380356361595E-025
  0.24080000000000001          1.5000912721692674E-026
  0.24190000000000000         -1.3737450601028951E-025
  0.24300000000000005         -2.9459327647757604E-025
  0.24410000000000004         -3.7686949673986452E-025
  0.24520000000000003         -3.0424969816648316E-025
  0.24630000000000002         -3.8122214771798625E-026
  0.24740000000000001          3.7881152437709892E-025
  0.24850000000000005          8.0552544393238595E-025
  0.24960000000000004          1.0282024871564246E-024
  0.25070000000000003          8.3512187807066130E-025
  0.25180000000000002          1.2556660178786016E-025
  0.25290000000000001         -9.8699160460677374E-025
  0.25400000000000000         -2.1324196111399459E-024
  0.25510000000000005         -2.7513801905446612E-024
  0.25620000000000004         -2.2887122835564063E-024
  0.25730000000000003         -4.7264734256594678E-025
  0.25840000000000002          2.4210352201524999E-024
  0.25950000000000001          5.4580071186447766E-024
  0.26060000000000005          7.2104253319916142E-024
  0.26170000000000004          6.2381810875774947E-024
  0.26280000000000003          1.7883374169442659E-024
  0.26390000000000002         -5.5346074846939999E-024
  0.26500000000000001         -1.3466933236119203E-023
  0.26610000000000000         -1.8457158459742404E-023
  0.26720000000000005         -1.6818531854251887E-023
  0.26830000000000004         -6.4388491580649000E-024
  0.26940000000000003          1.1537399972332144E-023
  0.27050000000000002          3.1869529342491091E-023
  0.27160000000000001          4.5973551378832214E-023
  0.27270000000000005          4.4568946671762752E-023
  0.27380000000000004          2.1748327177091536E-023
  0.27490000000000003         -2.0861532345930957E-023
  0.27600000000000002         -7.1757129278069930E-023
  0.27710000000000001         -1.1085775210826943E-022
  0.27820000000000000         -1.1530069245712106E-022
  0.27930000000000005         -6.8840016313871255E-023
  0.28040000000000004          2.8054831507670223E-023
  0.28150000000000003          1.5175522968660686E-022
  0.28260000000000002          2.5704958128157217E-022
  0.28370000000000001          2.8912542299432752E-022
  0.28480000000000005          2.0453075630881259E-022
  0.28590000000000004         -4.9113667432327817E-024
  0.28700000000000003         -2.9485580958404882E-022
  0.28810000000000002         -5.6808244154213068E-022
  0.28920000000000001         -6.9751247847065047E-022
  0.29030000000000000         -5.7106259395898738E-022
  0.29140000000000005         -1.4657073484329850E-022
  0.29250000000000004          5.0369250950146875E-022
  0.29360000000000003          1.1822295131877668E-021
  0.29470000000000002          1.6061378676690818E-021
  0.29580000000000001          1.4983944626839780E-021
  0.29690000000000005          7.0940865238267713E-022
  0.29800000000000004         -6.7288734596617343E-022
  0.29910000000000003         -2.2757445115243965E-021
  0.30020000000000002         -3.4992700474415929E-021
  0.30130000000000001         -3.6908770659341252E-021
  0.30240000000000000         -2.4026567568789405E-021
  0.30350000000000005          3.4882926882248697E-022
  0.30460000000000004          3.9289722003076345E-021
  0.30570000000000003          7.1380630075597204E-021
  0.30680000000000002          8.5178955889390703E-021
  0.30790000000000001          6.8688528766777895E-021
  0.30900000000000005          1.8326348029825717E-021
  0.31010000000000004         -5.6786425649969848E-021
  0.31120000000000003         -1.3433908325317708E-020
  0.31230000000000002         -1.8358776094777210E-020
  0.31340000000000001         -1.7510311737322281E-020
  0.31450000000000006         -9.3142653392616316E-021
  0.31560000000000005          5.3535004036429074E-021
  0.31670000000000004          2.2728181581590985E-020
  0.31780000000000003          3.6739614647454858E-020
  0.31890000000000002          4.0705124966382609E-020
  0.32000000000000001          2.9800797154356715E-020
  0.32110000000000005          3.5675233531903714E-021
  0.32220000000000004         -3.2533514323722085E-020
  0.32330000000000003         -6.7424538629660048E-020
  0.32440000000000002         -8.7022999968712824E-020
  0.32550000000000001         -7.8836425758018187E-020
  0.32660000000000006         -3.7338438480980698E-020
  0.32770000000000005          3.1740125331661556E-020
  0.32880000000000004          1.1020197721268674E-019
  0.32990000000000003          1.7064429721648375E-019
  0.33100000000000002          1.8425254274162624E-019
  0.33210000000000001          1.3145748165148783E-019
  0.33320000000000005          1.2197898541771748E-020
  0.33430000000000004         -1.4825789470865488E-019
  0.33540000000000003         -3.0144154656748648E-019
  0.33650000000000002         -3.8724576698943631E-019
  0.33760000000000001         -3.5323517627915874E-019
  0.33870000000000006         -1.7661647661563125E-019
  0.33980000000000005          1.1865130405248914E-019
  0.34090000000000004          4.5739324202395314E-019
  0.34200000000000003          7.2660470414968245E-019
  0.34310000000000002          8.0665883024225819E-019
  0.34420000000000001          6.1366854604568703E-019
  0.34530000000000005          1.4038892554143793E-019
  0.34640000000000004         -5.1981689223936194E-019
  0.34750000000000003         -1.1793440729510474E-018
  0.34860000000000002         -1.5988773617360250E-018
  0.34970000000000001         -1.5602401689139794E-018
  0.35080000000000006         -9.5111346481666789E-019
  0.35190000000000005          1.6596746973189721E-019
  0.35300000000000004          1.5294239687836226E-018
  0.35410000000000003          2.7196751418942177E-018
  0.35520000000000002          3.2675861379643892E-018
  0.35630000000000001          2.8088328042182458E-018
  0.35740000000000005          1.2407531344463716E-018
  0.35850000000000004         -1.1736318738334859E-018
  0.35960000000000003         -3.8048513195510033E-018
  0.36070000000000002         -5.7857855184445254E-018
  0.36180000000000001         -6.2569236071169659E-018
  0.36290000000000006         -4.6704689472178388E-018
  0.36400000000000005         -1.0606780864426854E-018
  0.36510000000000004          3.8229752603623464E-018
  0.36620000000000003          8.6002183354097551E-018
  0.36730000000000002          1.1585557006686097E-017
  0.36840000000000006          1.1299886046237846E-017
  0.36950000000000005          7.0348410646990917E-018
  0.37060000000000004         -7.1355256956541994E-019
  0.37170000000000003         -1.0123538435055772E-017
  0.37280000000000002         -1.8354955812816922E-017
  0.37390000000000001         -2.2280951868979379E-017
  0.37500000000000006         -1.9492871785559170E-017
  0.37610000000000005         -9.2983157590126577E-018
  0.37720000000000004          6.6300304534442157E-018
  0.37830000000000003          2.4256932496774628E-017
  0.37940000000000002          3.7988891671318436E-017
  0.38050000000000006          4.2193854389064401E-017
  0.38160000000000005          3.3089659721844463E-017
  0.38270000000000004          1.0452848963080483E-017
  0.38380000000000003         -2.1463503863513651E-017
  0.38490000000000002         -5.4287668387230644E-017
  0.38600000000000001         -7.7332586071990523E-017
  0.38710000000000000         -8.0574862757957474E-017
  0.38819999999999999         -5.8094237760913920E-017
  0.38930000000000009         -1.0951185577474280E-017
  0.39040000000000008          5.1557813547128042E-017
  0.39150000000000007          1.1302902939367950E-016
  0.39260000000000006          1.5361647918083122E-016
  0.39370000000000005          1.5559825834472046E-016
  0.39480000000000004          1.0946347728943702E-016
  0.39590000000000003          1.8684304391149811E-017
  0.39700000000000002         -9.8620204867495799E-017
  0.39810000000000001         -2.1229409103183184E-016
  0.39920000000000000         -2.8706534211555396E-016
  0.40029999999999999         -2.9244871295138787E-016
  0.40140000000000009         -2.1308908439238920E-016
  0.40250000000000008         -5.6369771324532770E-017
  0.40360000000000007          1.4563520535620917E-016
  0.40470000000000006          3.4154250434623070E-016
  0.40580000000000005          4.7303555497085347E-016
  0.40690000000000004          4.9160511121306870E-016
  0.40800000000000003          3.7514221025122026E-016
  0.40910000000000002          1.3908384226056058E-016
  0.41020000000000001         -1.6242027493679640E-016
  0.41130000000000000         -4.4747702400172460E-016
  0.41239999999999999         -6.2819880895759964E-016
  0.41350000000000009         -6.3813630537390550E-016
  0.41460000000000008         -4.5749048868548733E-016
  0.41570000000000007         -1.2741808099450073E-016
  0.41680000000000006          2.5338357989379914E-016
  0.41790000000000005          5.5217956070521671E-016
  0.41900000000000004          6.4206415596900130E-016
  0.42010000000000003          4.4834597392648910E-016
  0.42120000000000002         -1.2605588161610963E-017
  0.42230000000000001         -6.1665782623258219E-016
  0.42340000000000000         -1.1480147759954464E-015
  0.42449999999999999         -1.3505672469800250E-015
  0.42560000000000009         -1.0062261193062865E-015
  0.42670000000000008         -2.1525416678002020E-017
  0.42780000000000007          1.5030856935285288E-015
  0.42890000000000006          3.2472761391194420E-015
  0.43000000000000005          4.7067947988850643E-015
  0.43110000000000004          5.2953683477789237E-015
  0.43220000000000003          4.4977817958535404E-015
  0.43330000000000002          2.0411708906892300E-015
  0.43440000000000001         -1.9604446274093957E-015
  0.43550000000000000         -6.9348565213641408E-015
  0.43659999999999999         -1.1888546177780783E-014
  0.43770000000000009         -1.5563622236141640E-014
  0.43880000000000008         -1.6696040912116648E-014
  0.43990000000000007         -1.4326163004377626E-014
  0.44100000000000006         -8.0907460567910920E-015
  0.44210000000000005          1.5809008104477685E-015
  0.44320000000000004          1.3429138172576377E-014
  0.44430000000000003          2.5513997788410500E-014
  0.44540000000000002          3.5536230533726731E-014
  0.44650000000000001          4.1266601545414047E-014
  0.44760000000000000          4.0987795568627611E-014
  0.44869999999999999          3.3845518889689258E-014
  0.44980000000000009          2.0028270220680960E-014
  0.45090000000000008          7.3957670643928449E-016
  0.45200000000000007         -2.2016707169414743E-014
  0.45310000000000006         -4.5768595212597810E-014
  0.45420000000000005         -6.7928891407231101E-014
  0.45530000000000004         -8.6071036094811232E-014
  0.45640000000000003         -9.8058178601718310E-014
  0.45750000000000002         -1.0200563673899363E-013
  0.45860000000000001         -9.6121834179240667E-014
  0.45970000000000000         -7.8541367203380230E-014
  0.46079999999999999         -4.7314264322879246E-014
  0.46190000000000009         -7.2058871592112564E-016
  0.46300000000000008          6.1988351192539259E-014
  0.46410000000000007          1.3946444910387101E-013
  0.46520000000000006          2.2699035576514981E-013
  0.46630000000000005          3.1547198664147458E-013
  0.46740000000000004          3.9117908673565183E-013
  0.46850000000000003          4.3662366474087055E-013
  0.46960000000000002          4.3273026763442080E-013
  0.47070000000000001          3.6212314613939811E-013
  0.47180000000000000          2.1304782753511081E-013
  0.47289999999999999         -1.6753296951219250E-014
  0.47400000000000009         -3.1696880905575375E-013
  0.47510000000000008         -6.6314981934587069E-013
  0.47620000000000007         -1.0172236317163019E-012
  0.47730000000000006         -1.3303955376589571E-012
  0.47840000000000005         -1.5484430144346861E-012