 -0.12000000000000000          0.0000000000000000     
 -0.11889999999999999          0.0000000000000000     
 -0.11780000000000000          0.0000000000000000     
 -0.11670000000000000          0.0000000000000000     
 -0.11559999999999999          0.0000000000000000     
 -0.11449999999999999          0.0000000000000000     
 -0.11340000000000000          0.0000000000000000     
 -0.11230000000000000          0.0000000000000000     
 -0.11119999999999999          0.0000000000000000     
 -0.11009999999999999          0.0000000000000000     
 -0.10900000000000000          0.0000000000000000     
 -0.10790000000000000         -8.6401895220611722E-048
 -0.10679999999999999          1.9830726066377635E-042
 -0.10569999999999999          8.3866890770312128E-041
 -0.10460000000000000          1.5583061177799187E-039
 -0.10349999999999999          1.6790879509846503E-038
 -0.10239999999999999          1.2360324486108170E-037
 -0.10130000000000000          6.8276595083042543E-037
 -0.10020000000000000          2.9863788755530305E-036
  -9.9099999999999994E-002     1.0636952297990528E-035
  -9.7999999999999990E-002     3.1112096221893706E-035
  -9.6899999999999986E-002     7.3880675394174469E-035
  -9.5799999999999996E-002     1.3642767067749104E-034
  -9.4699999999999993E-002     1.7089388230344638E-034
  -9.3599999999999989E-002     5.0873014428946614E-035
  -9.2499999999999999E-002    -3.8454379392912739E-034
  -9.1399999999999995E-002    -1.1196280780934538E-033
  -9.0299999999999991E-002    -1.7072319450869657E-033
  -8.9200000000000002E-002    -1.5740754426421445E-033
  -8.8099999999999984E-002    -1.5344247552115567E-033
  -8.6999999999999994E-002    -5.1578247210782815E-033
  -8.5899999999999990E-002    -1.4248397693205471E-032
  -8.4799999999999986E-002    -1.2001137424133644E-032
  -8.3699999999999997E-002     5.5153529162836752E-032
  -8.2599999999999993E-002     2.4360208006242038E-031
  -8.1499999999999989E-002     4.4752173138358497E-031
  -8.0399999999999999E-002     1.3332554779449050E-031
  -7.9299999999999995E-002    -1.6446428852425624E-030
  -7.8199999999999992E-002    -5.1622491851486288E-030
  -7.7100000000000002E-002    -7.4316316763182071E-030
  -7.5999999999999984E-002     1.5880543836893851E-031
  -7.4899999999999994E-002     2.8359784612397401E-029
  -7.3799999999999991E-002     7.3572625545047657E-029
  -7.2699999999999987E-002     9.0160796095687463E-029
  -7.1599999999999997E-002    -2.1493437443967969E-029
  -7.0499999999999993E-002    -3.5523587668149580E-028
  -6.9399999999999989E-002    -8.2234420416555217E-028
  -6.8300000000000000E-002    -9.2129848760166448E-028
  -6.7199999999999996E-002     2.7097671673474386E-028
  -6.6099999999999992E-002     3.4521294475066514E-027
  -6.5000000000000002E-002     7.5916476489069942E-027
  -6.3899999999999985E-002     8.3182025889694261E-027
  -6.2799999999999995E-002    -1.6196977578410627E-027
  -6.1699999999999991E-002    -2.6995383229718765E-026
  -6.0599999999999994E-002    -5.9341991192652399E-026
  -5.9499999999999990E-002    -6.6897268802674644E-026
  -5.8399999999999994E-002     2.3507777517675462E-028
  -5.7299999999999990E-002     1.7352534801520253E-025
  -5.6199999999999986E-002     3.9865838389047999E-025
  -5.5099999999999996E-002     4.7752032162597488E-025
  -5.3999999999999992E-002     1.0363876422934647E-025
  -5.2899999999999989E-002    -9.2421550292932611E-025
  -5.1799999999999985E-002    -2.3250505420355445E-024
  -5.0699999999999995E-002    -3.0191372953044585E-024
  -4.9599999999999991E-002    -1.3083018419302830E-024
  -4.8499999999999988E-002     4.0316484427045725E-024
  -4.7399999999999998E-002     1.1838178538483813E-023
  -4.6299999999999994E-002     1.6919649234094462E-023
  -4.5199999999999990E-002     1.0742437196475093E-023
  -4.4099999999999986E-002    -1.3619539398847663E-023
  -4.2999999999999997E-002    -5.2618845167508673E-023
  -4.1899999999999993E-002    -8.4170809146476219E-023
  -4.0799999999999989E-002    -6.9314555945600847E-023
  -3.9699999999999985E-002     2.7835231909990894E-023
  -3.8599999999999995E-002     2.0242673897806399E-022
  -3.7499999999999992E-002     3.7175209386915157E-022
  -3.6399999999999988E-002     3.7433712824470740E-022
  -3.5299999999999984E-002     4.1253211368572590E-023
  -3.4199999999999994E-002    -6.5728817850564950E-022
  -3.3099999999999991E-002    -1.4531474456071018E-021
  -3.1999999999999987E-002    -1.7409231556155784E-021
  -3.0899999999999997E-002    -8.0073656705467007E-022
  -2.9799999999999993E-002     1.6804633407218666E-021
  -2.8699999999999989E-002     4.9820501486563197E-021
  -2.7599999999999986E-002     7.0651647403642202E-021
  -2.6499999999999996E-002     5.1591385006800126E-021
  -2.5399999999999992E-002    -2.5552779286434332E-021
  -2.4299999999999988E-002    -1.4674884375588953E-020
  -2.3199999999999985E-002    -2.5112547616875188E-020
  -2.2099999999999995E-002    -2.4266161491136127E-020
  -2.0999999999999991E-002    -3.8997076993623261E-021
  -1.9899999999999987E-002     3.5344829041004520E-020
  -1.8799999999999983E-002     7.7770895156465029E-020
  -1.7699999999999994E-002     9.3579575591086309E-020
  -1.6599999999999990E-002     5.1328296585641133E-020
  -1.5499999999999986E-002    -5.9523739618389864E-020
  -1.4399999999999996E-002    -2.0607834641764715E-019
  -1.3299999999999992E-002    -3.0639367069339050E-019
  -1.2199999999999989E-002    -2.5631735793714896E-019
  -1.1099999999999985E-002     9.6688990836090897E-021
  -9.9999999999999950E-003     4.4602631473489276E-019
  -8.8999999999999913E-003     8.5721206115632676E-019
  -7.7999999999999875E-003     9.4106438193748971E-019
  -6.6999999999999837E-003     4.3422164209678461E-019
  -5.5999999999999939E-003    -6.8138328282618628E-019
  -4.4999999999999901E-003    -2.0190888648777557E-018
  -3.3999999999999864E-003    -2.8130682628384214E-018
  -2.2999999999999826E-003    -2.2171974162395419E-018
  -1.1999999999999927E-003     1.7288974431799057E-019
  -9.9999999999988987E-005     3.8044075380484298E-018
   1.0000000000000148E-003     7.0081430910262172E-018
   2.1000000000000185E-003     7.4910370053488653E-018
   3.2000000000000084E-003     3.4961719670291684E-018
   4.3000000000000121E-003    -4.7876207659759811E-018
   5.4000000000000159E-003    -1.4357930879676659E-017
   6.5000000000000058E-003    -1.9901329168178847E-017
   7.6000000000000234E-003    -1.6009391767634840E-017
   8.7000000000000133E-003    -5.1353028466592767E-019
   9.8000000000000032E-003     2.2646877530022090E-017
   1.0900000000000021E-002     4.3037840902142391E-017
   1.2000000000000011E-002     4.7181987340549206E-017
   1.3100000000000001E-002     2.5400497325204749E-017
   1.4200000000000018E-002    -2.0701696467993341E-017
   1.5300000000000008E-002    -7.4414207194780636E-017
   1.6400000000000026E-002    -1.0760622952169502E-016
   1.7500000000000016E-002    -9.2740806225539600E-017
   1.8600000000000005E-002    -1.9312381111525381E-017
   1.9700000000000023E-002     9.3393468846973233E-017
   2.0800000000000013E-002     1.9620777042324872E-016
   2.1900000000000003E-002     2.2743945050179778E-016
   2.3000000000000020E-002     1.4385089062130359E-016
   2.4100000000000010E-002    -4.8034143700914444E-017
   2.5200000000000000E-002    -2.7844414402663428E-016
   2.6300000000000018E-002    -4.3264329781444041E-016
   2.7400000000000008E-002    -4.0105479277680513E-016
   2.8500000000000025E-002    -1.4274688686501901E-016
   2.9600000000000015E-002     2.6996149001257847E-016
   3.0700000000000005E-002     6.5733256084210794E-016
   3.1800000000000023E-002     8.0070966984319517E-016
   3.2900000000000013E-002     5.5348871706775223E-016
   3.4000000000000002E-002    -5.6186785499720920E-017
   3.5100000000000020E-002    -7.9200410828645932E-016
   3.6200000000000010E-002    -1.2842703050316807E-015
   3.7300000000000028E-002    -1.2008771233770617E-015
   3.8400000000000017E-002    -4.4381765011228780E-016
   3.9500000000000007E-002     7.3373468690126062E-016
   4.0600000000000025E-002     1.7781978936939031E-015
   4.1700000000000015E-002     2.0705649806657479E-015
   4.2800000000000005E-002     1.2608397798186332E-015
   4.3900000000000022E-002    -4.6257327269558578E-016
   4.5000000000000012E-002    -2.3397129939370271E-015
   4.6100000000000002E-002    -3.3236965811929728E-015
   4.7200000000000020E-002    -2.6047496226804137E-015
   4.8300000000000010E-002    -1.3813306228406410E-016
   4.9400000000000027E-002     3.1234055074579336E-015
   5.0500000000000017E-002     5.5024412917985367E-015
   5.1600000000000007E-002     5.3535213974364222E-015
   5.2700000000000025E-002     2.0044497423732996E-015
   5.3800000000000014E-002    -3.5966856624721201E-015
   5.4900000000000004E-002    -8.9646241796924067E-015
   5.6000000000000022E-002    -1.1030655462159784E-014
   5.7100000000000012E-002    -7.6634065949894563E-015
   5.8200000000000002E-002     9.2939130604396793E-016
   5.9300000000000019E-002     1.1701703225386244E-014
   6.0400000000000009E-002     1.9651938197257852E-014
   6.1500000000000027E-002     1.9938624579088518E-014
   6.2600000000000017E-002     1.0397012894983042E-014
   6.3700000000000007E-002    -6.7589677632399691E-015
   6.4800000000000024E-002    -2.5086052654846868E-014
   6.5900000000000014E-002    -3.6195293748811909E-014
   6.7000000000000004E-002    -3.3416305070704152E-014
   6.8100000000000022E-002    -1.5262271464203039E-014
   6.9200000000000012E-002     1.3034653531337254E-014
   7.0300000000000029E-002     4.0938941266607428E-014
   7.1400000000000019E-002     5.6673470933379787E-014
   7.2500000000000009E-002     5.2282713469196382E-014
   7.3600000000000027E-002     2.7392294484519442E-014
   7.4700000000000016E-002    -1.0196551571931571E-014
   7.5800000000000006E-002    -4.7506626543838947E-014
   7.6900000000000024E-002    -7.1646702621023266E-014
   7.8000000000000014E-002    -7.4830273984495901E-014
   7.9100000000000004E-002    -5.6751654633441249E-014
   8.0200000000000021E-002    -2.3352493242224987E-014
   8.1300000000000011E-002     1.6940950881933751E-014
   8.2400000000000029E-002     5.6932963909445268E-014
   8.3500000000000019E-002     9.1796976265814835E-014
   8.4600000000000009E-002     1.1689300492059634E-013
   8.5700000000000026E-002     1.2415945369979873E-013
   8.6800000000000016E-002     1.0084857349996731E-013
   8.7900000000000006E-002     3.3962228708318501E-014
   8.9000000000000024E-002    -7.9383637564234220E-014
   9.0100000000000013E-002    -2.2006364438606014E-013
   9.1200000000000003E-002    -3.4146979966559178E-013
   9.2300000000000021E-002    -3.7816379880055585E-013
   9.3400000000000011E-002    -2.7101752510810143E-013
   9.4500000000000028E-002    -2.1389495239519824E-015
   9.5600000000000018E-002     3.7587859706511589E-013
   9.6700000000000008E-002     7.3510683805855146E-013
   9.7800000000000026E-002     9.0455464070221433E-013
   9.8900000000000016E-002     7.3716778741448285E-013
  0.10000000000000001          1.9007839581687642E-013
  0.10110000000000002         -6.1762954992741764E-013
  0.10220000000000001         -1.4059258094578250E-012
  0.10330000000000003         -1.8123719753191413E-012
  0.10440000000000002         -1.5348748465348644E-012
  0.10550000000000001         -4.9040510387710431E-013
  0.10660000000000003          1.0801911467575402E-012
  0.10770000000000002          2.6256118895590767E-012
  0.10880000000000001          3.4429809199735466E-012
  0.10990000000000003          2.9501371964035974E-012
  0.11100000000000002          9.7960905523781827E-013
  0.11210000000000001         -2.0305911808049358E-012
  0.11320000000000002         -5.0599180396402602E-012
  0.11430000000000001         -6.7864718412404494E-012
  0.11540000000000003         -6.0705020488197575E-012
  0.11650000000000002         -2.4854078744220907E-012
  0.11760000000000001          3.3138620551341559E-012
  0.11870000000000003          9.5749075411960096E-012
  0.11980000000000002          1.3872277245880729E-011
  0.12090000000000001          1.3901935991259164E-011
  0.12200000000000003          8.4145692879135577E-012
  0.12310000000000001         -2.0443254778412752E-012
  0.12420000000000003         -1.4910615414448470E-011
  0.12530000000000002         -2.6082932029060304E-011
  0.12640000000000001         -3.1069773268555282E-011
  0.12750000000000003         -2.6510360339704225E-011
  0.12860000000000002         -1.1591231398264632E-011
  0.12970000000000001          1.1161133695489864E-011
  0.13080000000000003          3.6092138363716235E-011
  0.13190000000000002          5.5720665821276332E-011
  0.13300000000000001          6.2849050070468540E-011
  0.13410000000000000          5.2883640771891793E-011
  0.13520000000000004          2.5621600703056272E-011
  0.13630000000000003         -1.4143472579981515E-011
  0.13740000000000002         -5.7509080070814780E-011
  0.13850000000000001         -9.3675537994834609E-011
  0.13960000000000000         -1.1284544636656087E-010
  0.14070000000000005         -1.0889474863789540E-010
  0.14180000000000004         -8.0934063213494048E-011
  0.14290000000000003         -3.3249575616381597E-011
  0.14400000000000002          2.6288127295763571E-011
  0.14510000000000001          8.8647252596363142E-011
  0.14620000000000000          1.4582102674278521E-010
  0.14730000000000004          1.9177655141751007E-010
  0.14840000000000003          2.2171352122932503E-010
  0.14950000000000002          2.3004705800448866E-010
  0.15060000000000001          2.0837839029301774E-010
  0.15170000000000000          1.4514594238006536E-010
  0.15280000000000005          2.8346174787936850E-011
  0.15390000000000004         -1.4838256969505225E-010
  0.15500000000000003         -3.7763167753063085E-010
  0.15610000000000002         -6.3092168906536295E-010
  0.15720000000000001         -8.5590375289003171E-010
  0.15830000000000000         -9.8123268719532597E-010
  0.15940000000000004         -9.3033500851111751E-010
  0.16050000000000003         -6.4232103716475262E-010
  0.16160000000000002         -9.5218879707186007E-011
  0.16270000000000001          6.7530682586451173E-010
  0.16380000000000000          1.5685733597752986E-009
  0.16490000000000005          2.4272671977906171E-009
  0.16600000000000004          3.0617700238505774E-009
  0.16710000000000003          3.2857739298836333E-009
  0.16820000000000002          2.9548468465478670E-009
  0.16930000000000001          1.9985413794648935E-009
  0.17040000000000000          4.3875923172833281E-010
  0.17150000000000004         -1.6082023558984550E-009
  0.17260000000000003         -3.9429631598641933E-009
  0.17370000000000002         -6.3007308641142530E-009
  0.17480000000000001         -8.3676883539480503E-009
  0.17590000000000000         -9.7919312180255383E-009
  0.17700000000000005         -1.0191267610357235E-008
  0.17810000000000004         -9.1670431391470380E-009
  0.17920000000000003         -6.3369738663467845E-009
  0.18030000000000002         -1.3981211476157459E-009
  0.18140000000000001          5.7772120576592739E-009
  0.18250000000000000          1.5022802530015195E-008
  0.18360000000000004          2.5760348904705540E-008
  0.18470000000000003          3.6913163508354424E-008
  0.18580000000000002          4.6881366232383091E-008
  0.18690000000000001          5.3595141084981690E-008
  0.18800000000000000          5.4640563011776626E-008
  0.18910000000000005          4.7427368369318730E-008
  0.19020000000000004          2.9348297520387964E-008
  0.19130000000000003         -2.1274159224489324E-009
  0.19240000000000002         -4.9474256138338069E-008
  0.19350000000000001         -1.1526731324610941E-007
  0.19460000000000005         -2.0246625743708503E-007
  0.19570000000000004         -3.1478667679853601E-007
  0.19680000000000003         -4.5710257086482883E-007
  0.19790000000000002         -6.3582832135873841E-007
  0.19900000000000001         -8.5925205638198784E-007
  0.20010000000000000         -1.1378305849836315E-006
  0.20120000000000005         -1.4844926413788052E-006
  0.20230000000000004         -1.9150224412347415E-006
  0.20340000000000003         -2.4485963554656337E-006
  0.20450000000000002         -3.1085204654422808E-006
  0.20560000000000000         -3.9231771050194024E-006
  0.20670000000000005         -4.9271453466825575E-006
  0.20780000000000004         -6.1624315123675823E-006
  0.20890000000000003         -7.6797508235854477E-006
  0.21000000000000002         -9.5398210065860086E-006
  0.21110000000000001         -1.1814707560535471E-005
  0.21220000000000000         -1.4589290222733079E-005
  0.21330000000000005         -1.7962989578546336E-005
  0.21440000000000003         -2.2051888613568050E-005
  0.21550000000000002         -2.6991349606478776E-005
  0.21660000000000001         -3.2939155479972217E-005
  0.21770000000000000         -4.0079137567634930E-005
  0.21880000000000005         -4.8625180864796558E-005
  0.21990000000000004         -5.8825431020882038E-005
  0.22100000000000003         -7.0966615957066220E-005
  0.22210000000000002         -8.5378374229858414E-005
  0.22320000000000001         -1.0243764059343559E-004
  0.22430000000000000         -1.2257313764255884E-004
  0.22540000000000004         -1.4627008860813439E-004
  0.22650000000000003         -1.7407525160039318E-004
  0.22760000000000002         -2.0660218179924857E-004
  0.22870000000000001         -2.4453685259654063E-004
  0.22980000000000000         -2.8864315150333027E-004
  0.23090000000000005         -3.3976809410651160E-004
  0.23200000000000004         -3.9884662309669740E-004
  0.23310000000000003         -4.6690537602976309E-004
  0.23420000000000002         -5.4506573974880178E-004
  0.23530000000000001         -6.3454570899769143E-004
  0.23640000000000000         -7.3666072131393055E-004
  0.23750000000000004         -8.5282288704685138E-004
  0.23860000000000003         -9.8453927704504878E-004
  0.23970000000000002         -1.1334078111084507E-003
  0.24080000000000001         -1.3011114375139070E-003
  0.24190000000000000         -1.4894088342439927E-003
  0.24300000000000005         -1.7001233055817444E-003
  0.24410000000000004         -1.9351267704819145E-003
  0.24520000000000003         -2.1963210001747831E-003
  0.24630000000000002         -2.4856149611597713E-003
  0.24740000000000001         -2.8048989881226567E-003
  0.24850000000000005         -3.1560149615827418E-003
  0.24960000000000004         -3.5407238709064016E-003
  0.25070000000000003         -3.9606690219485081E-003
  0.25180000000000002         -4.4173368321265595E-003
  0.25290000000000001         -4.9120140108716535E-003
  0.25400000000000000         -5.4457393563663234E-003
  0.25510000000000005         -6.0192568767254203E-003
  0.25620000000000004         -6.6329623108018687E-003
  0.25730000000000003         -7.2868504697821811E-003
  0.25840000000000002         -7.9804631426465752E-003
  0.25950000000000001         -8.7128335906368568E-003
  0.26060000000000005         -9.4824410379718890E-003
  0.26170000000000004         -1.0287158903223662E-002
  0.26280000000000003         -1.1124213772172573E-002
  0.26390000000000002         -1.1990145856952097E-002
  0.26500000000000001         -1.2880780889589487E-002
  0.26610000000000000         -1.3791200439162286E-002
  0.26720000000000005         -1.4715732603653491E-002
  0.26830000000000004         -1.5647942213909735E-002
  0.26940000000000003         -1.6580642526435228E-002
  0.27050000000000002         -1.7505917276889806E-002
  0.27160000000000001         -1.8415156243809436E-002
  0.27270000000000005         -1.9299106497371155E-002
  0.27380000000000004         -2.0147942166350161E-002
  0.27490000000000003         -2.0951342564211398E-002
  0.27600000000000002         -2.1698592058045585E-002
  0.27710000000000001         -2.2378690511133031E-002
  0.27820000000000000         -2.2980471937997536E-002
  0.27930000000000005         -2.3492747104098023E-002
  0.28040000000000004         -2.3904446477576585E-002
  0.28150000000000003         -2.4204782541045539E-002
  0.28260000000000002         -2.4383419490028230E-002
  0.28370000000000001         -2.4430640120820708E-002
  0.28480000000000005         -2.4337532716257798E-002
  0.28590000000000004         -2.4096157623665078E-002
  0.28700000000000003         -2.3699712784359093E-002
  0.28810000000000002         -2.3142706287949132E-002
  0.28920000000000001         -2.2421091263526156E-002
  0.29030000000000000         -2.1532405345739990E-002
  0.29140000000000005         -2.0475888136372838E-002
  0.29250000000000004         -1.9252568388710894E-002
  0.29360000000000003         -1.7865348084097329E-002
  0.29470000000000002         -1.6319040132780616E-002
  0.29580000000000001         -1.4620394850948071E-002
  0.29690000000000005         -1.2778081833517578E-002
  0.29800000000000004         -1.0802660361563025E-002
  0.29910000000000003         -8.7065020679279355E-003
  0.30020000000000002         -6.5036832711865451E-003
  0.30130000000000001         -4.2098518210518321E-003
  0.30240000000000000         -1.8420572986949870E-003
  0.30350000000000005          5.8144089926966363E-004
  0.30460000000000004          3.0413865894710788E-003
  0.30570000000000003          5.5177593985897685E-003
  0.30680000000000002          7.9900243565214323E-003
  0.30790000000000001          1.0437391804894957E-002
  0.30900000000000005          1.2839087295148703E-002
  0.31010000000000004          1.5174628163903581E-002
  0.31120000000000003          1.7424094184062530E-002
  0.31230000000000002          1.9568399119879010E-002
  0.31340000000000001          2.1589546536643474E-002
  0.31450000000000006          2.3470865835216917E-002
  0.31560000000000005          2.5197234737817938E-002
  0.31670000000000004          2.6755273512948950E-002
  0.31780000000000003          2.8133505485370823E-002
  0.31890000000000002          2.9322497544786788E-002
  0.32000000000000001          3.0314965215340224E-002
  0.32110000000000005          3.1105828669238125E-002
  0.32220000000000004          3.1692261894502249E-002
  0.32330000000000003          3.2073677178912949E-002
  0.32440000000000002          3.2251693111605889E-002
  0.32550000000000001          3.2230072951602476E-002
  0.32660000000000006          3.2014603383345594E-002
  0.32770000000000005          3.1612979113133183E-002
  0.32880000000000004          3.1034653994265055E-002
  0.32990000000000003          3.0290628231255411E-002
  0.33100000000000002          2.9393289078084160E-002
  0.33210000000000001          2.8356175356998796E-002
  0.33320000000000005          2.7193766900652172E-002
  0.33430000000000004          2.5921256128463965E-002
  0.33540000000000003          2.4554326019811945E-002
  0.33650000000000002          2.3108917031240194E-002
  0.33760000000000001          2.1601011234958310E-002
  0.33870000000000006          2.0046413911597366E-002
  0.33980000000000005          1.8460566853630511E-002
  0.34090000000000004          1.6858357516907646E-002
  0.34200000000000003          1.5253963764430615E-002
  0.34310000000000002          1.3660717883727736E-002
  0.34420000000000001          1.2090989288002838E-002
  0.34530000000000005          1.0556091027732785E-002
  0.34640000000000004          9.0662027536715442E-003
  0.34750000000000003          7.6303229766529757E-003
  0.34860000000000002          6.2562360260344559E-003
  0.34970000000000001          4.9505000276880446E-003
  0.35080000000000006          3.7184573125545288E-003
  0.35190000000000005          2.5642591188491863E-003
  0.35300000000000004          1.4909077991887535E-003
  0.35410000000000003          5.0031643908896007E-004
  0.35520000000000002         -4.0661929702782821E-004
  0.35630000000000001         -1.2299384351269285E-003
  0.35740000000000005         -1.9705264205958709E-003
  0.35850000000000004         -2.6300242468128756E-003
  0.35960000000000003         -3.2107381332139159E-003
  0.36070000000000002         -3.7155505484570504E-003
  0.36180000000000001         -4.1478307167799044E-003
  0.36290000000000006         -4.5113477437560088E-003
  0.36400000000000005         -4.8101831309134667E-003
  0.36510000000000004         -5.0486495607638317E-003
  0.36620000000000003         -5.2312119131869353E-003
  0.36730000000000002         -5.3624167399722086E-003
  0.36840000000000006         -5.4468285212165724E-003
  0.36950000000000005         -5.4889733013962841E-003
  0.37060000000000004         -5.4932910783802051E-003
  0.37170000000000003         -5.4640946820832675E-003
  0.37280000000000002         -5.4055348930852187E-003
  0.37390000000000001         -5.3215752274842522E-003
  0.37500000000000006         -5.2159697988366600E-003
  0.37610000000000005         -5.0922448948795725E-003
  0.37720000000000004         -4.9536877719345042E-003
  0.37830000000000003         -4.8033353116069761E-003
  0.37940000000000002         -4.6439695243342353E-003
  0.38050000000000006         -4.4781146625176016E-003
  0.38160000000000005         -4.3080414874615853E-003
  0.38270000000000004         -4.1357716356383960E-003
  0.38380000000000003         -3.9630895530158600E-003
  0.38490000000000002         -3.7915497717045518E-003
  0.38600000000000001         -3.6224898585744620E-003
  0.38710000000000000         -3.4570375760294651E-003
  0.38819999999999999         -3.2961214622757012E-003
  0.38930000000000009         -3.1404823264600933E-003
  0.39040000000000008         -2.9906843158770870E-003
  0.39150000000000007         -2.8471299339239428E-003
  0.39260000000000006         -2.7100750320819332E-003
  0.39370000000000005         -2.5796476326524500E-003
  0.39480000000000004         -2.4558657401483994E-003
  0.39590000000000003         -2.3386544436162070E-003
  0.39700000000000002         -2.2278629256082820E-003
  0.39810000000000001         -2.1232769051629983E-003
  0.39920000000000000         -2.0246298946704953E-003
  0.40029999999999999         -1.9316127856583358E-003
  0.40140000000000009         -1.8438845809714130E-003
  0.40250000000000008         -1.7610845393198644E-003
  0.40360000000000007         -1.6828452479997081E-003
  0.40470000000000006         -1.6088051768918554E-003
  0.40580000000000005         -1.5386201269360826E-003
  0.40690000000000004         -1.4719703985300407E-003
  0.40800000000000003         -1.4085657978454196E-003
  0.40910000000000002         -1.3481476683299464E-003
  0.41020000000000001         -1.2904899746163411E-003
  0.41130000000000000         -1.2353994207129392E-003
  0.41239999999999999         -1.1827158104365206E-003
  0.41350000000000009         -1.1323101248319029E-003
  0.41460000000000008         -1.0840828572446027E-003
  0.41570000000000007         -1.0379602146544965E-003
  0.41680000000000006         -9.9388979984125136E-004
  0.41790000000000005         -9.5183658741653855E-004
  0.41900000000000004         -9.1177800643200101E-004
  0.42010000000000003         -8.7369890868220458E-004
  0.42120000000000002         -8.3758554761293835E-004
  0.42230000000000001         -8.0341952144321693E-004
  0.42340000000000000         -7.7117235570272084E-004
  0.42449999999999999         -7.4080115830963398E-004
  0.42560000000000009         -7.1224724828841787E-004
  0.42670000000000008         -6.8543579382524076E-004
  0.42780000000000007         -6.6027668543255902E-004
  0.42890000000000006         -6.3666468883041719E-004
  0.43000000000000005         -6.1447906688754316E-004
  0.43110000000000004         -5.9358253270826416E-004
  0.43220000000000003         -5.7382111436658724E-004
  0.43330000000000002         -5.5502528882008678E-004
  0.43440000000000001         -5.3701278807173603E-004
  0.43550000000000000         -5.1959243371880862E-004
  0.43659999999999999         -5.0256785531876784E-004
  0.43770000000000009         -4.8574084139964269E-004
  0.43880000000000008         -4.6891262715897985E-004
  0.43990000000000007         -4.5188425993705761E-004
  0.44100000000000006         -4.3445504990449746E-004
  0.44210000000000005         -4.1641927608286627E-004
  0.44320000000000004         -3.9756163188472163E-004
  0.44430000000000003         -3.7765072251749737E-004
  0.44540000000000002         -3.5643221352572705E-004
  0.44650000000000001         -3.3362115488375213E-004
  0.44760000000000000         -3.0889397848309823E-004
  0.44869999999999999         -2.8188005215629884E-004
  0.44980000000000009         -2.5215154661724690E-004
  0.45090000000000008         -2.1921164567318015E-004
  0.45200000000000007         -1.8248072993743813E-004
  0.45310000000000006         -1.4128215563187618E-004
  0.45420000000000005         -9.4828302149594875E-005
  0.45530000000000004         -4.2207923974598409E-005
  0.45640000000000003          1.7624794981002908E-005
  0.45750000000000002          8.5859781241867523E-005
  0.45860000000000001          1.6384013256490120E-004
  0.45970000000000000          2.5307076507553297E-004
  0.46079999999999999          3.5522647106753485E-004
  0.46190000000000009          4.7215849986401062E-004
  0.46300000000000008          6.0589879913715988E-004
  0.46410000000000007          7.5866129100184143E-004
  0.46520000000000006          9.3284017347832870E-004
  0.46630000000000005          1.1310047155280061E-003
  0.46740000000000004          1.3558910108601694E-003
  0.46850000000000003          1.6103905167256028E-003
  0.46960000000000002          1.8975347692285391E-003
  0.47070000000000001          2.2204754396228932E-003
  0.47180000000000000          2.5824621008238109E-003
  0.47289999999999999          2.9868160221563729E-003
  0.47400000000000009          3.4368992424217010E-003
  0.47510000000000008          3.9360806071137835E-003
  0.47620000000000007          4.4876945099942295E-003
  0.47730000000000006          5.0949928915398337E-003
  0.47840000000000005          5.7610890370440506E-003