 -0.12000000000000000          0.0000000000000000     
 -0.11889999999999999          0.0000000000000000     
 -0.11780000000000000          0.0000000000000000     
 -0.11670000000000000          0.0000000000000000     
 -0.11559999999999999         -1.6861566320636142E-016
 -0.11449999999999999         -1.1589834145852135E-015
 -0.11340000000000000         -4.1958759801297572E-015
 -0.11230000000000000         -1.0647343339752911E-014
 -0.11119999999999999         -2.1426148869449108E-014
 -0.11009999999999999         -3.6862946157072184E-014
 -0.10900000000000000         -5.6711860319717984E-014
 -0.10790000000000000         -7.8255833584091684E-014
 -0.10679999999999999         -9.0432505627586216E-014
 -0.10569999999999999         -6.5542727699289219E-014
 -0.10460000000000000          4.3886904674406482E-014
 -0.10349999999999999          2.9249662502386463E-013
 -0.10239999999999999          7.0883024871031553E-013
 -0.10130000000000000          1.2509516249805303E-012
 -0.10020000000000000          1.7751943263293173E-012
  -9.9099999999999994E-002     2.0446948095613579E-012
  -9.7999999999999990E-002     1.7878982160828281E-012
  -9.6899999999999986E-002     7.8950955686047078E-013
  -9.5799999999999996E-002    -1.0233851202959543E-012
  -9.4699999999999993E-002    -3.5320970619658713E-012
  -9.3599999999999989E-002    -6.4172441781567791E-012
  -9.2499999999999999E-002    -9.1639965475281539E-012
  -9.1399999999999995E-002    -1.1056875025402333E-011
  -9.0299999999999991E-002    -1.1181002715333443E-011
  -8.9200000000000002E-002    -8.5030611510100951E-012
  -8.8099999999999984E-002    -2.1234433789664857E-012
  -8.6999999999999994E-002     8.2715978622302830E-012
  -8.5899999999999990E-002     2.1865788399641637E-011
  -8.4799999999999986E-002     3.6326544331911165E-011
  -8.3699999999999997E-002     4.7874872317141590E-011
  -8.2599999999999993E-002     5.1998035796402836E-011
  -8.1499999999999989E-002     4.4737945306486167E-011
  -8.0399999999999999E-002     2.4200030076695381E-011
  -7.9299999999999995E-002    -8.2516442665093971E-012
  -7.8199999999999992E-002    -4.7615285647121163E-011
  -7.7100000000000002E-002    -8.5948275207813507E-011
  -7.5999999999999984E-002    -1.1404533039955529E-010
  -7.4899999999999994E-002    -1.2367856598053062E-010
  -7.3799999999999991E-002    -1.0979781777374865E-010
  -7.2699999999999987E-002    -7.2090604315854916E-011
  -7.1599999999999997E-002    -1.5461158281395452E-011
  -7.0499999999999993E-002     5.0748643827550263E-011
  -6.9399999999999989E-002     1.1466344575203588E-010
  -6.8300000000000000E-002     1.6447116364760157E-010
  -6.7199999999999996E-002     1.9106425468755552E-010
  -6.6099999999999992E-002     1.9002766325564414E-010
  -6.5000000000000002E-002     1.6244312293339377E-010
  -6.3899999999999985E-002     1.1433235924644522E-010
  -6.2799999999999995E-002     5.4969563651681390E-011
  -6.1699999999999991E-002    -5.4177420845799877E-012
  -6.0599999999999994E-002    -5.7972981044113119E-011
  -5.9499999999999990E-002    -9.7099553819690595E-011
  -5.8399999999999994E-002    -1.2161337084313517E-010
  -5.7299999999999990E-002    -1.3491621582560137E-010
  -5.6199999999999986E-002    -1.4391413529121280E-010
  -5.5099999999999996E-002    -1.5648173044144847E-010
  -5.3999999999999992E-002    -1.7768879741272278E-010
  -5.2899999999999989E-002    -2.0578226657997271E-010
  -5.1799999999999985E-002    -2.2969904281252211E-010
  -5.0699999999999995E-002    -2.3007091501013374E-010
  -4.9599999999999991E-002    -1.8477120435890273E-010
  -4.8499999999999988E-002    -7.8107763637990471E-011
  -4.7399999999999998E-002     8.9437206780593574E-011
  -4.6299999999999994E-002     2.9528188399154995E-010
  -4.5199999999999990E-002     4.9634582312322041E-010
  -4.4099999999999986E-002     6.3925883924339767E-010
  -4.2999999999999997E-002     6.7664914893543848E-010
  -4.1899999999999993E-002     5.8404754621841966E-010
  -4.0799999999999989E-002     3.7109436256104609E-010
  -3.9699999999999985E-002     8.2437956992092107E-011
  -3.8599999999999995E-002    -2.1284709625490705E-010
  -3.7499999999999992E-002    -4.4075388092497535E-010
  -3.6399999999999988E-002    -5.4541542939118315E-010
  -3.5299999999999984E-002    -5.0925357393135107E-010
  -3.4199999999999994E-002    -3.6403882586033572E-010
  -3.3099999999999991E-002    -1.8821224681717936E-010
  -3.1999999999999987E-002    -8.8613018136551792E-011
  -3.0899999999999997E-002    -1.6886785541399668E-010
  -2.9799999999999993E-002    -4.9187605498634321E-010
  -2.8699999999999989E-002    -1.0483500558265333E-009
  -2.7599999999999986E-002    -1.7449073408677485E-009
  -2.6499999999999996E-002    -2.4209144389245705E-009
  -2.5399999999999992E-002    -2.8932995756150714E-009
  -2.4299999999999988E-002    -3.0168224713577533E-009
  -2.3199999999999985E-002    -2.7374675907695128E-009
  -2.2099999999999995E-002    -2.1167020538124864E-009
  -2.0999999999999991E-002    -1.3148900894395975E-009
  -1.9899999999999987E-002    -5.3970187411498983E-010
  -1.8799999999999983E-002     1.8784460579610962E-011
  -1.7699999999999994E-002     2.3829696415761862E-010
  -1.6599999999999990E-002     8.0532935764042097E-011
  -1.5499999999999986E-002    -4.2900712431446204E-010
  -1.4399999999999996E-002    -1.2396814479922594E-009
  -1.3299999999999992E-002    -2.3077298086999203E-009
  -1.2199999999999989E-002    -3.6017419005224665E-009
  -1.1099999999999985E-002    -5.0809710224129211E-009
  -9.9999999999999950E-003    -6.6642875742164676E-009
  -8.8999999999999913E-003    -8.2129444838021734E-009
  -7.7999999999999875E-003    -9.5475977018197408E-009
  -6.6999999999999837E-003    -1.0499404599567911E-008
  -5.5999999999999939E-003    -1.0971198089516769E-008
  -4.4999999999999901E-003    -1.0982884222769989E-008
  -3.3999999999999864E-003    -1.0675783537875275E-008
  -2.2999999999999826E-003    -1.0269031380228535E-008
  -1.1999999999999927E-003    -9.9789591458408091E-009
  -9.9999999999988987E-005    -9.9307583897938159E-009
   1.0000000000000148E-003    -1.0087651003933936E-008
   2.1000000000000185E-003    -1.0223831072744217E-008
   3.2000000000000084E-003    -9.9586288149797686E-009
   4.3000000000000121E-003    -8.8470800664580433E-009
   5.4000000000000159E-003    -6.5109406849708774E-009
   6.5000000000000058E-003    -2.7799709361552545E-009
   7.6000000000000234E-003     2.1935100911634916E-009
   8.7000000000000133E-003     7.9043468087766714E-009
   9.8000000000000032E-003     1.3583981864666477E-008
   1.0900000000000021E-002     1.8406524483397052E-008
   1.2000000000000011E-002     2.1781094346121864E-008
   1.3100000000000001E-002     2.3614899125921044E-008
   1.4200000000000018E-002     2.4451318706460326E-008
   1.5300000000000008E-002     2.5366997524814236E-008
   1.6400000000000026E-002     2.7696061959471894E-008
   1.7500000000000016E-002     3.2565700112483896E-008
   1.8600000000000005E-002     4.0496265575120901E-008
   1.9700000000000023E-002     5.1192998066360816E-008
   2.0800000000000013E-002     6.3630000570340207E-008
   2.1900000000000003E-002     7.6401811813367478E-008
   2.3000000000000020E-002     8.8209161623056030E-008
   2.4100000000000010E-002     9.8206056436579539E-008
   2.5200000000000000E-002     1.0622142858509772E-007
   2.6300000000000018E-002     1.1268847035950807E-007
   2.7400000000000008E-002     1.1831535950193088E-007
   2.8500000000000025E-002     1.2373268471693613E-007
   2.9600000000000015E-002     1.2903677126957378E-007
   3.0700000000000005E-002     1.3366601336203985E-007
   3.1800000000000023E-002     1.3646720750024589E-007
   3.2900000000000013E-002     1.3602172597564286E-007
   3.4000000000000002E-002     1.3084531808937505E-007
   3.5100000000000020E-002     1.1983231816960734E-007
   3.6200000000000010E-002     1.0230143711571303E-007
   3.7300000000000028E-002     7.8182054019374571E-008
   3.8400000000000017E-002     4.7953070502979554E-008
   3.9500000000000007E-002     1.2322634902255060E-008
   4.0600000000000025E-002    -2.7767372664398356E-008
   4.1700000000000015E-002    -7.1820994906476406E-008
   4.2800000000000005E-002    -1.1983441612217639E-007
   4.3900000000000022E-002    -1.7242854089700481E-007
   4.5000000000000012E-002    -2.3054487047702014E-007
   4.6100000000000002E-002    -2.9559706782180876E-007
   4.7200000000000020E-002    -3.6873630041811741E-007
   4.8300000000000010E-002    -4.5046163832391899E-007
   4.9400000000000027E-002    -5.4051063981091398E-007
   5.0500000000000017E-002    -6.3745517883265993E-007
   5.1600000000000007E-002    -7.3881405608464324E-007
   5.2700000000000025E-002    -8.4153560984683518E-007
   5.3800000000000014E-002    -9.4216202030905536E-007
   5.4900000000000004E-002    -1.0369292536921772E-006
   5.6000000000000022E-002    -1.1219575196878782E-006
   5.7100000000000012E-002    -1.1930478390952296E-006
   5.8200000000000002E-002    -1.2447608723703993E-006
   5.9300000000000019E-002    -1.2712159731115886E-006
   6.0400000000000009E-002    -1.2667082974114473E-006
   6.1500000000000027E-002    -1.2257230198383639E-006
   6.2600000000000017E-002    -1.1435877092558598E-006
   6.3700000000000007E-002    -1.0155797932203155E-006
   6.4800000000000024E-002    -8.3674493049608655E-007
   6.5900000000000014E-002    -6.0137295551063277E-007
   6.7000000000000004E-002    -3.0321321543913760E-007
   6.8100000000000022E-002     6.3371123321021637E-008
   6.9200000000000012E-002     5.0144415634054320E-007
   7.0300000000000029E-002     1.0114313938654293E-006
   7.1400000000000019E-002     1.5908815541645193E-006
   7.2500000000000009E-002     2.2349978432628683E-006
   7.3600000000000027E-002     2.9364988622115703E-006
   7.4700000000000016E-002     3.6866942598678558E-006
   7.5800000000000006E-002     4.4746350565123859E-006
   7.6900000000000024E-002     5.2866507765769360E-006
   7.8000000000000014E-002     6.1060950451701626E-006
   7.9100000000000004E-002     6.9128822390782023E-006
   8.0200000000000021E-002     7.6840293999259578E-006
   8.1300000000000011E-002     8.3942872976563356E-006
   8.2400000000000029E-002     9.0156693726716533E-006
   8.3500000000000019E-002     9.5179460311560080E-006
   8.4600000000000009E-002     9.8691529036768787E-006
   8.5700000000000026E-002     1.0036464000374742E-005
   8.6800000000000016E-002     9.9873176674481371E-006
   8.7900000000000006E-002     9.6904068905941807E-006
   8.9000000000000024E-002     9.1172184891280411E-006
   9.0100000000000013E-002     8.2434131964167882E-006
   9.1200000000000003E-002     7.0503985023392631E-006
   9.2300000000000021E-002     5.5253272969038318E-006
   9.3400000000000011E-002     3.6611636277857773E-006
   9.4500000000000028E-002     1.4584017183310702E-006
   9.5600000000000018E-002    -1.0740101054282238E-006
   9.6700000000000008E-002    -3.9177381132652859E-006
   9.7800000000000026E-002    -7.0427321233835832E-006
   9.8900000000000016E-002    -1.0406824014548708E-005
  0.10000000000000001         -1.3956327180359953E-005
  0.10110000000000002         -1.7627860736190604E-005
  0.10220000000000001         -2.1350841041023972E-005
  0.10330000000000003         -2.5048594024872743E-005
  0.10440000000000002         -2.8638189801527393E-005
  0.10550000000000001         -3.2030171700096933E-005
  0.10660000000000003         -3.5127930349198563E-005
  0.10770000000000002         -3.7828064091237103E-005
  0.10880000000000001         -4.0024128818179961E-005
  0.10990000000000003         -4.1611956315313375E-005
  0.11100000000000002         -4.2494876188549412E-005
  0.11210000000000001         -4.2586962620974111E-005
  0.11320000000000002         -4.1814919509822196E-005
  0.11430000000000001         -4.0118451422160135E-005
  0.11540000000000003         -3.7451074597573444E-005
  0.11650000000000002         -3.3782603443202914E-005
  0.11760000000000001         -2.9102357301094510E-005
  0.11870000000000003         -2.3422164047293379E-005
  0.11980000000000002         -1.6779968180636353E-005
  0.12090000000000001         -9.2394759548976246E-006
  0.12200000000000003         -8.8881971437294438E-007
  0.12310000000000001          8.1610117739387206E-006
  0.12420000000000003          1.7777127092149910E-005
  0.12530000000000002          2.7804799044677850E-005
  0.12640000000000001          3.8067878534614353E-005
  0.12750000000000003          4.8370326727359814E-005
  0.12860000000000002          5.8500138202131772E-005
  0.12970000000000001          6.8233093628780803E-005
  0.13080000000000003          7.7338786204274302E-005
  0.13190000000000002          8.5588105819659507E-005
  0.13300000000000001          9.2758031521036359E-005
  0.13410000000000000          9.8635838622808275E-005
  0.13520000000000004          1.0302383351611218E-004
  0.13630000000000003          1.0574307388185161E-004
  0.13740000000000002          1.0663915420458022E-004
  0.13850000000000001          1.0558684801917040E-004
  0.13960000000000000          1.0249612712503564E-004
  0.14070000000000005          9.7315544672221455E-005
  0.14180000000000004          9.0035745039232769E-005
  0.14290000000000003          8.0691154443314871E-005
  0.14400000000000002          6.9361365790766440E-005
  0.14510000000000001          5.6171811855969890E-005
  0.14620000000000000          4.1294134458230223E-005
  0.14730000000000004          2.4944940699380341E-005
  0.14840000000000003          7.3828329207692413E-006
  0.14950000000000002         -1.1096035454035256E-005
  0.15060000000000001         -3.0163536490591619E-005
  0.15170000000000000         -4.9465784462545901E-005
  0.15280000000000005         -6.8630106652332933E-005
  0.15390000000000004         -8.7272705369141135E-005
  0.15500000000000003         -1.0500631210167877E-004
  0.15610000000000002         -1.2144831628825697E-004
  0.15720000000000001         -1.3622875686957828E-004
  0.15830000000000000         -1.4899871188578875E-004
  0.15940000000000004         -1.5943858473576141E-004
  0.16050000000000003         -1.6726663084160167E-004
  0.16160000000000002         -1.7224726960555508E-004
  0.16270000000000001         -1.7419868936350378E-004
  0.16380000000000000         -1.7299915464339096E-004
  0.16490000000000005         -1.6859123085636020E-004
  0.16600000000000004         -1.6098401174551296E-004
  0.16710000000000003         -1.5025314558120818E-004
  0.16820000000000002         -1.3653997902218418E-004
  0.16930000000000001         -1.2004983687074061E-004
  0.17040000000000000         -1.0104957517763440E-004
  0.17150000000000004         -7.9864787190713187E-005
  0.17260000000000003         -5.6874608122174048E-005
  0.17370000000000002         -3.2504719977312469E-005
  0.17480000000000001         -7.2174767171423533E-006
  0.17590000000000000          1.8499527972653983E-005
  0.17700000000000005          4.4144344327431574E-005
  0.17810000000000004          6.9211636182776108E-005
  0.17920000000000003          9.3202246801366961E-005
  0.18030000000000002          1.1563323041152869E-004
  0.18140000000000001          1.3604764456103685E-004
  0.18250000000000000          1.5402612695829181E-004
  0.18360000000000004          1.6919782070411404E-004
  0.18470000000000003          1.8125001546674885E-004
  0.18580000000000002          1.8993589459298727E-004
  0.18690000000000001          1.9507950053416906E-004
  0.18800000000000000          1.9657785166713308E-004
  0.18910000000000005          1.9440154334244439E-004
  0.19020000000000004          1.8859429896599136E-004
  0.19130000000000003          1.7927336413695380E-004
  0.19240000000000002          1.6662915628672673E-004
  0.19350000000000001          1.5092205588179447E-004
  0.19460000000000005          1.3247662065856225E-004
  0.19570000000000004          1.1167278117754517E-004
  0.19680000000000003          8.8935692512824308E-005
  0.19790000000000002          6.4724602400451000E-005
  0.19900000000000001          3.9522560069983133E-005
  0.20010000000000000          1.3826756282650486E-005
  0.20120000000000005         -1.1860868089913590E-005
  0.20230000000000004         -3.7044199478698438E-005
  0.20340000000000003         -6.1244272241165590E-005
  0.20450000000000002         -8.4010567882483527E-005
  0.20560000000000000         -1.0493198781059698E-004
  0.20670000000000005         -1.2364597568886542E-004
  0.20780000000000004         -1.3984497030330642E-004
  0.20890000000000003         -1.5328100620175445E-004
  0.21000000000000002         -1.6376958779757892E-004
  0.21110000000000001         -1.7119251497643148E-004
  0.21220000000000000         -1.7550020127853359E-004
  0.21330000000000005         -1.7671284206402938E-004
  0.21440000000000003         -1.7491957113559877E-004
  0.21550000000000002         -1.7027536863139776E-004
  0.21660000000000001         -1.6299603525685255E-004
  0.21770000000000000         -1.5335203808797599E-004
  0.21880000000000005         -1.4166178587000791E-004
  0.21990000000000004         -1.2828471896425596E-004
  0.22100000000000003         -1.1361415614320155E-004
  0.22210000000000002         -9.8069417177280187E-005
  0.22320000000000001         -8.2086741679899002E-005
  0.22430000000000000         -6.6108787688394055E-005
  0.22540000000000004         -5.0573725137678960E-005
  0.22650000000000003         -3.5904437960267072E-005
  0.22760000000000002         -2.2498636214332289E-005
  0.22870000000000001         -1.0720463078839959E-005
  0.22980000000000000         -8.9347221920557291E-007
  0.23090000000000005          6.7054919843865860E-006
  0.23200000000000004          1.1852252338046531E-005
  0.23310000000000003          1.4381264180733990E-005
  0.23420000000000002          1.4191362513931790E-005
  0.23530000000000001          1.1251216693054952E-005
  0.23640000000000000          5.6033285690275353E-006
  0.23750000000000004         -2.6340224156478851E-006
  0.23860000000000003         -1.3267493465841111E-005
  0.23970000000000002         -2.6031720116926429E-005
  0.24080000000000001         -4.0594233732917926E-005
  0.24190000000000000         -5.6560814278093880E-005
  0.24300000000000005         -7.3480774015936991E-005
  0.24410000000000004         -9.0852071958428315E-005
  0.24520000000000003         -1.0812657217770374E-004
  0.24630000000000002         -1.2471679464549451E-004
  0.24740000000000001         -1.4000473190363207E-004
  0.24850000000000005         -1.5335312421974401E-004
  0.24960000000000004         -1.6411835102611848E-004
  0.25070000000000003         -1.7166356168073544E-004
  0.25180000000000002         -1.7537097911698077E-004
  0.25290000000000001         -1.7465281092765412E-004
  0.25400000000000000         -1.6896090800484889E-004
  0.25510000000000005         -1.5779643603158414E-004
  0.25620000000000004         -1.4071986004239795E-004
  0.25730000000000003         -1.1736152701324074E-004
  0.25840000000000002         -8.7431836712200566E-005
  0.25950000000000001         -5.0729912829250862E-005
  0.26060000000000005         -7.1498053500753511E-006
  0.26170000000000004          4.3315761407034889E-005
  0.26280000000000003          1.0057374673327145E-004
  0.26390000000000002          1.6443038325350819E-004
  0.26500000000000001          2.3459171426234998E-004
  0.26610000000000000          3.1066503327696382E-004
  0.26720000000000005          3.9216249301757196E-004
  0.26830000000000004          4.7850665731878888E-004
  0.26940000000000003          5.6903859511276745E-004
  0.27050000000000002          6.6302762772817376E-004
  0.27160000000000001          7.5968196021024737E-004
  0.27270000000000005          8.5815927894943868E-004
  0.27380000000000004          9.5757723778525398E-004
  0.27490000000000003          1.0570249336288094E-003
  0.27600000000000002          1.1555752533513523E-003
  0.27710000000000001          1.2522983886645881E-003
  0.27820000000000000          1.3462753901893314E-003
  0.27930000000000005          1.4366111153298797E-003
  0.28040000000000004          1.5224449123041510E-003
  0.28150000000000003          1.6029585797992154E-003
  0.28260000000000002          1.6773832823961700E-003
  0.28370000000000001          1.7450048530271889E-003
  0.28480000000000005          1.8051691076344011E-003
  0.28590000000000004          1.8572878867845961E-003
  0.28700000000000003          1.9008429194912269E-003
  0.28810000000000002          1.9353883554752830E-003
  0.28920000000000001          1.9605501489115685E-003
  0.29030000000000000          1.9760235140531034E-003
  0.29140000000000005          1.9815674525745087E-003
  0.29250000000000004          1.9770007640936959E-003
  0.29360000000000003          1.9621972474198426E-003
  0.29470000000000002          1.9370818972867182E-003
  0.29580000000000001          1.9016265364475689E-003
  0.29690000000000005          1.8558450153787706E-003
  0.29800000000000004          1.7997881803062659E-003
  0.29910000000000003          1.7335399276944532E-003
  0.30020000000000002          1.6572137696686761E-003
  0.30130000000000001          1.5709525064585607E-003
  0.30240000000000000          1.4749277905982119E-003
  0.30350000000000005          1.3693407355411657E-003
  0.30460000000000004          1.2544231412958109E-003
  0.30570000000000003          1.1304391448989039E-003
  0.30680000000000002          9.9768812850736278E-004
  0.30790000000000001          8.5650969003345256E-004
  0.30900000000000005          7.0729064901563297E-004
  0.31010000000000004          5.5047356942198829E-004
  0.31120000000000003          3.8656523605668327E-004
  0.31230000000000002          2.1614394998059399E-004
  0.31340000000000001          3.9865395007036702E-005
  0.31450000000000006         -1.4153283160598960E-004
  0.31560000000000005         -3.2722747718200656E-004
  0.31670000000000004         -5.1630625156196138E-004
  0.31780000000000003         -7.0776528910244192E-004
  0.31890000000000002         -9.0050788159987084E-004
  0.32000000000000001         -1.0933462719188594E-003
  0.32110000000000005         -1.2850062963275430E-003
  0.32220000000000004         -1.4741351473345626E-003
  0.32330000000000003         -1.6593116277774354E-003
  0.32440000000000002         -1.8390581737569316E-003
  0.32550000000000001         -2.0118549450840492E-003
  0.32660000000000006         -2.1761556504852537E-003
  0.32770000000000005         -2.3304053969633925E-003
  0.32880000000000004         -2.4730616367541203E-003
  0.32990000000000003         -2.6026162804883074E-003
  0.33100000000000002         -2.7176182324601967E-003
  0.33210000000000001         -2.8166963294723214E-003
  0.33320000000000005         -2.8985818612418824E-003
  0.33430000000000004         -2.9621295066776039E-003
  0.33540000000000003         -3.0063391748656031E-003
  0.33650000000000002         -3.0303762589417482E-003
  0.33760000000000001         -3.0335920380620157E-003
  0.33870000000000006         -3.0155394544251384E-003
  0.33980000000000005         -2.9759851481679415E-003
  0.34090000000000004         -2.9149172366045323E-003
  0.34200000000000003         -2.8325515034764680E-003
  0.34310000000000002         -2.7293319219127109E-003
  0.34420000000000001         -2.6059300634269900E-003
  0.34530000000000005         -2.4632429728915980E-003
  0.34640000000000004         -2.3023872097786241E-003
  0.34750000000000003         -2.1246869671057741E-003
  0.34860000000000002         -1.9316584620404525E-003
  0.34970000000000001         -1.7249889805030084E-003
  0.35080000000000006         -1.5065135536768220E-003
  0.35190000000000005         -1.2781912485309258E-003
  0.35300000000000004         -1.0420813519540987E-003
  0.35410000000000003         -8.0031952573153444E-004
  0.35520000000000002         -5.5509144862548232E-004
  0.35630000000000001         -3.0860424273158974E-004
  0.35740000000000005         -6.3056430719953641E-005
  0.35850000000000004          1.7939330452213155E-004
  0.35960000000000003          4.1665435051663766E-004
  0.36070000000000002          6.4672848909058038E-004
  0.36180000000000001          8.6772997525672751E-004
  0.36290000000000006          1.0779043853375975E-003
  0.36400000000000005          1.2756438966900622E-003
  0.36510000000000004          1.4595046135690312E-003
  0.36620000000000003          1.6282227177095907E-003
  0.36730000000000002          1.7807267068724317E-003
  0.36840000000000006          1.9161456098050278E-003
  0.36950000000000005          2.0338115477759561E-003
  0.37060000000000004          2.1332547062711585E-003
  0.37170000000000003          2.2141990395431184E-003
  0.37280000000000002          2.2765540963304775E-003
  0.37390000000000001          2.3204090006178134E-003
  0.37500000000000006          2.3460272934482606E-003
  0.37610000000000005          2.3538372563691322E-003
  0.37720000000000004          2.3444191262977109E-003
  0.37830000000000003          2.3184892464844149E-003
  0.37940000000000002          2.2768783142498384E-003
  0.38050000000000006          2.2205127949738979E-003
  0.38160000000000005          2.1503955022076420E-003
  0.38270000000000004          2.0675918764018163E-003
  0.38380000000000003          1.9732177355357193E-003
  0.38490000000000002          1.8684278658909731E-003
  0.38600000000000001          1.7544019192543671E-003
  0.38710000000000000          1.6323297574583054E-003
  0.38819999999999999          1.5033941498155032E-003
  0.38930000000000009          1.3687569402374372E-003
  0.39040000000000008          1.2295484445328641E-003
  0.39150000000000007          1.0868608955300087E-003
  0.39260000000000006          9.4174669988548185E-004
  0.39370000000000005          7.9521634152416633E-004
  0.39480000000000004          6.4823586342215565E-004
  0.39590000000000003          5.0172128264245491E-004
  0.39700000000000002          3.5653197869732272E-004
  0.39810000000000001          2.1346506889342336E-004
  0.39920000000000000          7.3253586997167248E-005
  0.40029999999999999         -6.3431204821751163E-005
  0.40140000000000009         -1.9597471304365566E-004
  0.40250000000000008         -3.2381362138093883E-004
  0.40360000000000007         -4.4643421001806338E-004
  0.40470000000000006         -5.6337462604275264E-004
  0.40580000000000005         -6.7423093965793138E-004
  0.40690000000000004         -7.7866334880296901E-004
  0.40800000000000003         -8.7639911470373049E-004
  0.40910000000000002         -9.6723099237047217E-004
  0.41020000000000001         -1.0510116967361190E-003
  0.41130000000000000         -1.1276489612355341E-003
  0.41239999999999999         -1.1971045827214523E-003
  0.41350000000000009         -1.2593984719359605E-003
  0.41460000000000008         -1.3146188274474621E-003
  0.41570000000000007         -1.3629319584277694E-003
  0.41680000000000006         -1.4045887032242757E-003
  0.41790000000000005         -1.4399233827865844E-003
  0.41900000000000004         -1.4693478515317752E-003
  0.42010000000000003         -1.4933431122267045E-003
  0.42120000000000002         -1.5124543283679679E-003
  0.42230000000000001         -1.5272923493036695E-003
  0.42340000000000000         -1.5385387884698674E-003
  0.42449999999999999         -1.5469518057997377E-003
  0.42560000000000009         -1.5533656737216949E-003
  0.42670000000000008         -1.5586823886972296E-003
  0.42780000000000007         -1.5638565018461753E-003
  0.42890000000000006         -1.5698769315489257E-003
  0.43000000000000005         -1.5777539364344049E-003
  0.43110000000000004         -1.5885125681417394E-003
  0.43220000000000003         -1.6031911837836362E-003
  0.43330000000000002         -1.6228395282413080E-003
  0.43440000000000001         -1.6485104704337431E-003
  0.43550000000000000         -1.6812421091912551E-003
  0.43659999999999999         -1.7220337873762807E-003
  0.43770000000000009         -1.7718215796054338E-003
  0.43880000000000008         -1.8314609734338375E-003
  0.43990000000000007         -1.9017184249246143E-003
  0.44100000000000006         -1.9832693621221805E-003
  0.44210000000000005         -2.0766959115305688E-003
  0.44320000000000004         -2.1824770964922148E-003
  0.44430000000000003         -2.3009726026736797E-003
  0.44540000000000002         -2.4323970264713722E-003
  0.44650000000000001         -2.5767996474219631E-003
  0.44760000000000000         -2.7340506544915547E-003
  0.44869999999999999         -2.9038418470548897E-003
  0.44980000000000009         -3.0856914019622051E-003
  0.45090000000000008         -3.2789510187525243E-003
  0.45200000000000007         -3.4828038839631783E-003
  0.45310000000000006         -3.6962533616191227E-003
  0.45420000000000005         -3.9181085141140118E-003
  0.45530000000000004         -4.1469712103613561E-003
  0.45640000000000003         -4.3812385127925922E-003
  0.45750000000000002         -4.6191116234497948E-003
  0.45860000000000001         -4.8586194201919435E-003
  0.45970000000000000         -5.0976343842390149E-003
  0.46079999999999999         -5.3338854014502637E-003
  0.46190000000000009         -5.5649608343409660E-003
  0.46300000000000008         -5.7883102784859405E-003
  0.46410000000000007         -6.0012495085676951E-003
  0.46520000000000006         -6.2009774475301543E-003
  0.46630000000000005         -6.3846080741572367E-003
  0.46740000000000004         -6.5492103939339009E-003
  0.46850000000000003         -6.6918425208718716E-003
  0.46960000000000002         -6.8095848924642861E-003
  0.47070000000000001         -6.8995631807534791E-003
  0.47180000000000000         -6.9589692900598413E-003
  0.47289999999999999         -6.9850876972342053E-003
  0.47400000000000009         -6.9753300366801000E-003
  0.47510000000000008         -6.9272811681667500E-003
  0.47620000000000007         -6.8387515316791518E-003
  0.47730000000000006         -6.7078233266767238E-003
  0.47840000000000005         -6.5328927201564755E-003