 -0.12000000000000000          0.0000000000000000     
 -0.11889999999999999          0.0000000000000000     
 -0.11780000000000000          0.0000000000000000     
 -0.11670000000000000          0.0000000000000000     
 -0.11559999999999999          0.0000000000000000     
 -0.11449999999999999          0.0000000000000000     
 -0.11340000000000000          0.0000000000000000     
 -0.11230000000000000          0.0000000000000000     
 -0.11119999999999999          0.0000000000000000     
 -0.11009999999999999          0.0000000000000000     
 -0.10900000000000000         -1.2116357218017876E-024
 -0.10790000000000000         -1.6788925904478942E-023
 -0.10679999999999999         -1.1410109376665682E-022
 -0.10569999999999999         -4.9868287672185530E-022
 -0.10460000000000000         -1.5233402387474348E-021
 -0.10349999999999999         -3.1920663558803006E-021
 -0.10239999999999999         -3.4246190166425995E-021
 -0.10130000000000000          5.1976762167853961E-021
 -0.10020000000000000          3.8184909203912404E-020
  -9.9099999999999994E-002     1.1506432579903243E-019
  -9.7999999999999990E-002     2.3858313539199864E-019
  -9.6899999999999986E-002     3.5086781121542612E-019
  -9.5799999999999996E-002     2.7783102015065570E-019
  -9.4699999999999993E-002    -2.9556890026048383E-019
  -9.3599999999999989E-002    -1.7469479646594220E-018
  -9.2499999999999999E-002    -4.2641925719175188E-018
  -9.1399999999999995E-002    -7.4092776038610205E-018
  -9.0299999999999991E-002    -9.6112853340363836E-018
  -8.9200000000000002E-002    -7.8504965697774181E-018
  -8.8099999999999984E-002     2.0921420148063762E-018
  -8.6999999999999994E-002     2.4422555562103670E-017
  -8.5899999999999990E-002     6.0852501291974042E-017
  -8.4799999999999986E-002     1.0679286181608302E-016
  -8.3699999999999997E-002     1.4670761524188212E-016
  -8.2599999999999993E-002     1.5019200438442089E-016
  -8.1499999999999989E-002     7.2066032990983803E-017
  -8.0399999999999999E-002    -1.3836092610985864E-016
  -7.9299999999999995E-002    -5.1329132518470612E-016
  -7.8199999999999992E-002    -1.0257525580811030E-015
  -7.7100000000000002E-002    -1.5400433292040100E-015
  -7.5999999999999984E-002    -1.7763540865431719E-015
  -7.4899999999999994E-002    -1.3272950167542131E-015
  -7.3799999999999991E-002     2.3313864542147411E-016
  -7.2699999999999987E-002     3.1294712203317875E-015
  -7.1599999999999997E-002     7.0871750681370926E-015
  -7.0499999999999993E-002     1.1063886758795258E-014
  -6.9399999999999989E-002     1.3178733210511377E-014
  -6.8300000000000000E-002     1.1018573884248942E-014
  -6.7199999999999996E-002     2.4183326392449413E-015
  -6.6099999999999992E-002    -1.3368316971798782E-014
  -6.5000000000000002E-002    -3.4430330765264361E-014
  -6.3899999999999985E-002    -5.5421135345887218E-014
  -6.2799999999999995E-002    -6.7830384863597215E-014
  -6.1699999999999991E-002    -6.1722437057210033E-014
  -6.0599999999999994E-002    -2.8935072382812316E-014
  -5.9499999999999990E-002     3.2859569150953463E-014
  -5.8399999999999994E-002     1.1641241356302734E-013
  -5.7299999999999990E-002     2.0301199144066168E-013
  -5.6199999999999986E-002     2.6392150726146923E-013
  -5.5099999999999996E-002     2.6599371576868647E-013
  -5.3999999999999992E-002     1.8119933450824049E-013
  -5.2899999999999989E-002    -1.6371586212220310E-015
  -5.1799999999999985E-002    -2.6599772731672466E-013
  -5.0699999999999995E-002    -5.6174319753091173E-013
  -4.9599999999999991E-002    -8.0801977522110269E-013
  -4.8499999999999988E-002    -9.0747667626928097E-013
  -4.7399999999999998E-002    -7.7141385727147460E-013
  -4.6299999999999994E-002    -3.5159426910701119E-013
  -4.5199999999999990E-002     3.2940409297813056E-013
  -4.4099999999999986E-002     1.1599718581500884E-012
  -4.2999999999999997E-002     1.9437676294919992E-012
  -4.1899999999999993E-002     2.4328601199580246E-012
  -4.0799999999999989E-002     2.3884145529395884E-012
  -3.9699999999999985E-002     1.6577823098648525E-012
  -3.8599999999999995E-002     2.4782349024483896E-013
  -3.7499999999999992E-002    -1.6307378624541569E-012
  -3.6399999999999988E-002    -3.5708133498679739E-012
  -3.5299999999999984E-002    -5.0404476599485992E-012
  -3.4199999999999994E-002    -5.5124490042079977E-012
  -3.3099999999999991E-002    -4.6251314410328259E-012
  -3.1999999999999987E-002    -2.3298806460514410E-012
  -3.0899999999999997E-002     1.0256560141128079E-012
  -2.9799999999999993E-002     4.7205954423201746E-012
  -2.8699999999999989E-002     7.8058627270283232E-012
  -2.7599999999999986E-002     9.3493737057803727E-012
  -2.6499999999999996E-002     8.7206630805525265E-012
  -2.5399999999999992E-002     5.8286383532168973E-012
  -2.4299999999999988E-002     1.2255246730624725E-012
  -2.3199999999999985E-002    -3.9798715538441609E-012
  -2.2099999999999995E-002    -8.4003940956089984E-012
  -2.0999999999999991E-002    -1.0775301657883762E-011
  -1.9899999999999987E-002    -1.0382774501271896E-011
  -1.8799999999999983E-002    -7.3214975748747690E-012
  -1.7699999999999994E-002    -2.5490148186646522E-012
  -1.6599999999999990E-002     2.3669169922635458E-012
  -1.5499999999999986E-002     5.7342329669307635E-012
  -1.4399999999999996E-002     6.3233814885654827E-012
  -1.3299999999999992E-002     3.8671622328012578E-012
  -1.2199999999999989E-002    -7.0929449379891762E-013
  -1.1099999999999985E-002    -5.4454383710544896E-012
  -9.9999999999999950E-003    -7.8970423950108781E-012
  -8.8999999999999913E-003    -5.9635764208809672E-012
  -7.7999999999999875E-003     1.2339425271498672E-012
  -6.6999999999999837E-003     1.2705288210401733E-011
  -5.5999999999999939E-003     2.5435781952909409E-011
  -4.4999999999999901E-003     3.4886159933078531E-011
  -3.3999999999999864E-003     3.6142790149629178E-011
  -2.2999999999999826E-003     2.5508468601276313E-011
  -1.1999999999999927E-003     2.1319233271116511E-012
  -9.9999999999988987E-005    -3.0843275850012120E-011
   1.0000000000000148E-003    -6.6116688512973809E-011
   2.1000000000000185E-003    -9.3380712884449935E-011
   3.2000000000000084E-003    -1.0176896131364188E-010
   4.3000000000000121E-003    -8.3162150776860955E-011
   5.4000000000000159E-003    -3.5506056428324939E-011
   6.5000000000000058E-003     3.4929097808555909E-011
   7.6000000000000234E-003     1.1335198751849518E-010
   8.7000000000000133E-003     1.7889439929419382E-010
   9.8000000000000032E-003     2.0955005786138514E-010
   1.0900000000000021E-002     1.8861549822002388E-010
   1.2000000000000011E-002     1.1092198687334687E-010
   1.3100000000000001E-002    -1.3156879231923657E-011
   1.4200000000000018E-002    -1.5764380079108520E-010
   1.5300000000000008E-002    -2.8564842158296244E-010
   1.6400000000000026E-002    -3.5824587740762581E-010
   1.7500000000000016E-002    -3.4555380779011102E-010
   1.8600000000000005E-002    -2.3697194206917516E-010
   1.9700000000000023E-002    -4.7316369572447670E-011
   2.0800000000000013E-002     1.8363884024541477E-010
   2.1900000000000003E-002     3.9901471016179357E-010
   2.3000000000000020E-002     5.3870580218884356E-010
   2.4100000000000010E-002     5.5589532976796363E-010
   2.5200000000000000E-002     4.3163814189561833E-010
   2.6300000000000018E-002     1.8304129045798589E-010
   2.7400000000000008E-002    -1.3794262954114345E-010
   2.8500000000000025E-002    -4.5557507766247340E-010
   2.9600000000000015E-002    -6.8887695547914518E-010
   3.0700000000000005E-002    -7.7295636558005754E-010
   3.1800000000000023E-002    -6.7734323705437305E-010
   3.2900000000000013E-002    -4.1606507128477688E-010
   3.4000000000000002E-002    -4.6236320327963654E-011
   3.5100000000000020E-002     3.4503749857250909E-010
   3.6200000000000010E-002     6.6247490826398803E-010
   3.7300000000000028E-002     8.2763684794429082E-010
   3.8400000000000017E-002     8.0050299722245200E-010
   3.9500000000000007E-002     5.9151122888678742E-010
   4.0600000000000025E-002     2.6015306575644104E-010
   4.1700000000000015E-002    -1.0036364794796526E-010
   4.2800000000000005E-002    -3.8907185806458244E-010
   4.3900000000000022E-002    -5.2720194876343385E-010
   4.5000000000000012E-002    -4.8368486993410897E-010
   4.6100000000000002E-002    -2.8805721696834041E-010
   4.7200000000000020E-002    -2.5352109300769143E-011
   4.8300000000000010E-002     1.8771606491441162E-010
   4.9400000000000027E-002     2.4026108880192965E-010
   5.0500000000000017E-002     6.8335781477912860E-011
   5.1600000000000007E-002    -3.1327537786118853E-010
   5.2700000000000025E-002    -8.0064638252608233E-010
   5.3800000000000014E-002    -1.2189368403525691E-009
   5.4900000000000004E-002    -1.3684400279601050E-009
   5.6000000000000022E-002    -1.0883797196825640E-009
   5.7100000000000012E-002    -3.2086058809888129E-010
   5.8200000000000002E-002     8.4585843884710243E-010
   5.9300000000000019E-002     2.1724841925419014E-009
   6.0400000000000009E-002     3.3106568597673913E-009
   6.1500000000000027E-002     3.8867642437878658E-009
   6.2600000000000017E-002     3.6085894272730457E-009
   6.3700000000000007E-002     2.3659181280777375E-009
   6.4800000000000024E-002     2.9379174093513427E-010
   6.5900000000000014E-002    -2.2255015608152462E-009
   6.7000000000000004E-002    -4.6306469769774594E-009
   6.8100000000000022E-002    -6.3086771362463878E-009
   6.9200000000000012E-002    -6.7521659374847331E-009
   7.0300000000000029E-002    -5.7057083502343175E-009
   7.1400000000000019E-002    -3.2605069755220484E-009
   7.2500000000000009E-002     1.3279435884250290E-010
   7.3600000000000027E-002     3.7423046883588995E-009
   7.4700000000000016E-002     6.7085150767809409E-009
   7.5800000000000006E-002     8.2386515387611325E-009
   7.6900000000000024E-002     7.7910682350079696E-009
   7.8000000000000014E-002     5.2030997288454728E-009
   7.9100000000000004E-002     7.2689304575490610E-010
   8.0200000000000021E-002    -5.0408561769188509E-009
   8.1300000000000011E-002    -1.1319988502123124E-008
   8.2400000000000029E-002    -1.7361745818789132E-008
   8.3500000000000019E-002    -2.2668213972565354E-008
   8.4600000000000009E-002    -2.7159085647099346E-008
   8.5700000000000026E-002    -3.1246077725199939E-008
   8.6800000000000016E-002    -3.5800635345140108E-008
   8.7900000000000006E-002    -4.2020406709752933E-008
   8.9000000000000024E-002    -5.1227196706804534E-008
   9.0100000000000013E-002    -6.4667659671613364E-008
   9.1200000000000003E-002    -8.3351842761203443E-008
   9.2300000000000021E-002    -1.0799642780057184E-007
   9.3400000000000011E-002    -1.3908528728734382E-007
   9.4500000000000028E-002    -1.7705052357541717E-007
   9.5600000000000018E-002    -2.2250084441566287E-007
   9.6700000000000008E-002    -2.7650537504086969E-007
   9.7800000000000026E-002    -3.4079701549671881E-007
   9.8900000000000016E-002    -4.1783459892030805E-007
  0.10000000000000001         -5.1088312602587393E-007
  0.10110000000000002         -6.2377228005061625E-007
  0.10220000000000001         -7.6077111543781939E-007
  0.10330000000000003         -9.2651248451147694E-007
  0.10440000000000002         -1.1257374126216746E-006
  0.10550000000000001         -1.3636885114465258E-006
  0.10660000000000003         -1.6460222695968696E-006
  0.10770000000000002         -1.9796302694885526E-006
  0.10880000000000001         -2.3724144284642534E-006
  0.10990000000000003         -2.8343747544568032E-006
  0.11100000000000002         -3.3773667382774875E-006
  0.11210000000000001         -4.0151903704099823E-006
  0.11320000000000002         -4.7640951379435137E-006
  0.11430000000000001         -5.6416706684103701E-006
  0.11540000000000003         -6.6673346736934036E-006
  0.11650000000000002         -7.8626480899401940E-006
  0.11760000000000001         -9.2497512014233507E-006
  0.11870000000000003         -1.0853468666027766E-005
  0.11980000000000002         -1.2700892511929851E-005
  0.12090000000000001         -1.4821451259194873E-005
  0.12200000000000003         -1.7247186406166293E-005
  0.12310000000000001         -2.0014716938021593E-005
  0.12420000000000003         -2.3163096557254903E-005
  0.12530000000000002         -2.6735771825769916E-005
  0.12640000000000001         -3.0780698580201715E-005
  0.12750000000000003         -3.5346787626622245E-005
  0.12860000000000002         -4.0489481762051582E-005
  0.12970000000000001         -4.6265169657999650E-005
  0.13080000000000003         -5.2730367315234616E-005
  0.13190000000000002         -5.9949579735985026E-005
  0.13300000000000001         -6.7983201006427407E-005
  0.13410000000000000         -7.6892953075002879E-005
  0.13520000000000004         -8.6743835709057748E-005
  0.13630000000000003         -9.7599877335596830E-005
  0.13740000000000002         -1.0952460434054956E-004
  0.13850000000000001         -1.2257066555321217E-004
  0.13960000000000000         -1.3681377458851784E-004
  0.14070000000000005         -1.5229500422719866E-004
  0.14180000000000004         -1.6907659301068634E-004
  0.14290000000000003         -1.8721297965385020E-004
  0.14400000000000002         -2.0672973187174648E-004
  0.14510000000000001         -2.2766465554013848E-004
  0.14620000000000000         -2.5004660710692406E-004
  0.14730000000000004         -2.7386596775613725E-004
  0.14840000000000003         -2.9915967024862766E-004
  0.14950000000000002         -3.2584290602244437E-004
  0.15060000000000001         -3.5395938903093338E-004
  0.15170000000000000         -3.8339867023751140E-004
  0.15280000000000005         -4.1410580161027610E-004
  0.15390000000000004         -4.4602312846109271E-004
  0.15500000000000003         -4.7901010839268565E-004
  0.15610000000000002         -5.1299057668074965E-004
  0.15720000000000001         -5.4775725584477186E-004
  0.15830000000000000         -5.8318878291174769E-004
  0.15940000000000004         -6.1907141935080290E-004
  0.16050000000000003         -6.5520819043740630E-004
  0.16160000000000002         -6.9139077095314860E-004
  0.16270000000000001         -7.2729989187791944E-004
  0.16380000000000000         -7.6273322338238358E-004
  0.16490000000000005         -7.9736212501302361E-004
  0.16600000000000004         -8.3091307897120714E-004
  0.16710000000000003         -8.6314597865566611E-004
  0.16820000000000002         -8.9360657148063183E-004
  0.16930000000000001         -9.2231942107900977E-004
  0.17040000000000000         -9.4856269424781203E-004
  0.17150000000000004         -9.7233604174107313E-004
  0.17260000000000003         -9.9324097391217947E-004
  0.17370000000000002         -1.0109220165759325E-003
  0.17480000000000001         -1.0253227083012462E-003
  0.17590000000000000         -1.0359098669141531E-003
  0.17700000000000005         -1.0428099194541574E-003
  0.17810000000000004         -1.0455377632752061E-003
  0.17920000000000003         -1.0441931663081050E-003
  0.18030000000000002         -1.0385268833488226E-003
  0.18140000000000001         -1.0284354211762547E-003
  0.18250000000000000         -1.0139349615201354E-003
  0.18360000000000004         -9.9511328153312206E-004
  0.18470000000000003         -9.7201036987826228E-004
  0.18580000000000002         -9.4457581872120500E-004
  0.18690000000000001         -9.1315712779760361E-004
  0.18800000000000000         -8.7793334387242794E-004
  0.18910000000000005         -8.3882990293204784E-004
  0.19020000000000004         -7.9667224781587720E-004
  0.19130000000000003         -7.5125187868252397E-004
  0.19240000000000002         -7.0329592563211918E-004
  0.19350000000000001         -6.5325823379680514E-004
  0.19460000000000005         -6.0071866028010845E-004
  0.19570000000000004         -5.4736441234126687E-004
  0.19680000000000003         -4.9258413491770625E-004
  0.19790000000000002         -4.3725760770030320E-004
  0.19900000000000001         -3.8210893399082124E-004
  0.20010000000000000         -3.2693624962121248E-004
  0.20120000000000005         -2.7289407444186509E-004
  0.20230000000000004         -2.1975110576022416E-004
  0.20340000000000003         -1.6843143384903669E-004
  0.20450000000000002         -1.1886080756084993E-004
  0.20560000000000000         -7.1565009420737624E-005
  0.20670000000000005         -2.7432215574663132E-005
  0.20780000000000004          1.4525546248478349E-005
  0.20890000000000003          5.2803112339461222E-005
  0.21000000000000002          8.7713502580299973E-005
  0.21110000000000001          1.1981886927969754E-004
  0.21220000000000000          1.4749589900020510E-004
  0.21330000000000005          1.7187048797495663E-004
  0.21440000000000003          1.9283624715171754E-004
  0.21550000000000002          2.0954951469320804E-004
  0.21660000000000001          2.2319209529086947E-004
  0.21770000000000000          2.3328304814640433E-004
  0.21880000000000005          2.3973191855475307E-004
  0.21990000000000004          2.4327679420821369E-004
  0.22100000000000003          2.4379196111112833E-004
  0.22210000000000002          2.4144130293279886E-004
  0.22320000000000001          2.3657600104343146E-004
  0.22430000000000000          2.2975930187385529E-004
  0.22540000000000004          2.2036508016753942E-004
  0.22650000000000003          2.0945385040249676E-004
  0.22760000000000002          1.9737545517273247E-004
  0.22870000000000001          1.8333867774344981E-004
  0.22980000000000000          1.6912518185563385E-004
  0.23090000000000005          1.5402218559756875E-004
  0.23200000000000004          1.3785369810648263E-004
  0.23310000000000003          1.2226548278704286E-004
  0.23420000000000002          1.0600784298731014E-004
  0.23530000000000001          8.9959685283247381E-005
  0.23640000000000000          7.4730291089508682E-005
  0.23750000000000004          5.9463505749590695E-005
  0.23860000000000003          4.5038392272545025E-005
  0.23970000000000002          3.1394341931445524E-005
  0.24080000000000001          1.8413644284009933E-005
  0.24190000000000000          6.4443684095749632E-006
  0.24300000000000005         -4.5071778913552407E-006
  0.24410000000000004         -1.4345269846671727E-005
  0.24520000000000003         -2.3493350454373285E-005
  0.24630000000000002         -3.1160096114035696E-005
  0.24740000000000001         -3.8079891965026036E-005
  0.24850000000000005         -4.4002408685628325E-005
  0.24960000000000004         -4.8182093451032415E-005
  0.25070000000000003         -5.2098013838985935E-005
  0.25180000000000002         -5.4531963542103767E-005
  0.25290000000000001         -5.5971919209696352E-005
  0.25400000000000000         -5.7198591093765572E-005
  0.25510000000000005         -5.6645749282324687E-005
  0.25620000000000004         -5.5875338148325682E-005
  0.25730000000000003         -5.4204854677664116E-005
  0.25840000000000002         -5.1458744565024972E-005
  0.25950000000000001         -4.8563251766609028E-005
  0.26060000000000005         -4.4624932343140244E-005
  0.26170000000000004         -4.0249637095257640E-005
  0.26280000000000003         -3.5206841857871041E-005
  0.26390000000000002         -2.9603357688756660E-005
  0.26500000000000001         -2.3655577024328522E-005
  0.26610000000000000         -1.6945710740401410E-005
  0.26720000000000005         -1.0245981684420258E-005
  0.26830000000000004         -2.4715002382436069E-006
  0.26940000000000003          5.7432948779023718E-006
  0.27050000000000002          1.4203780665411614E-005
  0.27160000000000001          2.4037008188315667E-005
  0.27270000000000005          3.3699016057653353E-005
  0.27380000000000004          4.4461434299591929E-005
  0.27490000000000003          5.6363867770414799E-005
  0.27600000000000002          6.8502209614962339E-005
  0.27710000000000001          8.2501210272312164E-005
  0.27820000000000000          9.7257674497086555E-005
  0.27930000000000005          1.1326173989800736E-004
  0.28040000000000004          1.3107417908031493E-004
  0.28150000000000003          1.5009735943749547E-004
  0.28260000000000002          1.7140035924967378E-004
  0.28370000000000001          1.9452399283181876E-004
  0.28480000000000005          2.2009195527061820E-004
  0.28590000000000004          2.4815573124215007E-004
  0.28700000000000003          2.7861999114975333E-004
  0.28810000000000002          3.1262153061106801E-004
  0.28920000000000001          3.4924346255138516E-004
  0.29030000000000000          3.8967814180068672E-004
  0.29140000000000005          4.3388945050537586E-004
  0.29250000000000004          4.8131158109754324E-004
  0.29360000000000003          5.3351098904386163E-004
  0.29470000000000002          5.8934936532750726E-004
  0.29580000000000001          6.4968498190864921E-004
  0.29690000000000005          7.1498379111289978E-004
  0.29800000000000004          7.8429421409964561E-004
  0.29910000000000003          8.5888843750581145E-004
  0.30020000000000002          9.3788217054679990E-004
  0.30130000000000001          1.0215636575594544E-003
  0.30240000000000000          1.1102511780336499E-003
  0.30350000000000005          1.2030734214931726E-003
  0.30460000000000004          1.3007024535909295E-003
  0.30570000000000003          1.4020643429830670E-003
  0.30680000000000002          1.5073432587087154E-003
  0.30790000000000001          1.6162560787051916E-003
  0.30900000000000005          1.7278067534789443E-003
  0.31010000000000004          1.8426069291308522E-003
  0.31120000000000003          1.9589781295508146E-003
  0.31230000000000002          2.0769762340933084E-003
  0.31340000000000001          2.1961540915071964E-003
  0.31450000000000006          2.3148206528276205E-003
  0.31560000000000005          2.4335857015103102E-003
  0.31670000000000004          2.5506597012281418E-003
  0.31780000000000003          2.6654005050659180E-003
  0.31890000000000002          2.7775235939770937E-003
  0.32000000000000001          2.8851274400949478E-003
  0.32110000000000005          2.9882560484111309E-003
  0.32220000000000004          3.0854670330882072E-003
  0.32330000000000003          3.1760893762111664E-003
  0.32440000000000002          3.2594162039458752E-003
  0.32550000000000001          3.3341054804623127E-003
  0.32660000000000006          3.4001870080828667E-003
  0.32770000000000005          3.4558882471174002E-003
  0.32880000000000004          3.5012098960578442E-003
  0.32990000000000003          3.5355319269001484E-003
  0.33100000000000002          3.5573397763073444E-003
  0.33210000000000001          3.5675831604748964E-003
  0.33320000000000005          3.5647139884531498E-003
  0.33430000000000004          3.5487026907503605E-003
  0.33540000000000003          3.5200284328311682E-003
  0.33650000000000002          3.4774369560182095E-003
  0.33760000000000001          3.4218914806842804E-003
  0.33870000000000006          3.3531328663229942E-003
  0.33980000000000005          3.2712556421756744E-003
  0.34090000000000004          3.1769762281328440E-003
  0.34200000000000003          3.0703328084200621E-003
  0.34310000000000002          2.9523845296353102E-003
  0.34420000000000001          2.8231167234480381E-003
  0.34530000000000005          2.6838229969143867E-003
  0.34640000000000004          2.5352546945214272E-003
  0.34750000000000003          2.3776921443641186E-003
  0.34860000000000002          2.2132776211947203E-003
  0.34970000000000001          2.0420167129486799E-003
  0.35080000000000006          1.8652350408956409E-003
  0.35190000000000005          1.6846294747665524E-003
  0.35300000000000004          1.5002798754721880E-003
  0.35410000000000003          1.3142661191523075E-003
  0.35520000000000002          1.1275126598775387E-003
  0.35630000000000001          9.4082904979586601E-004
  0.35740000000000005          7.5588986510410905E-004
  0.35850000000000004          5.7334790471941233E-004
  0.35960000000000003          3.9447352173738182E-004
  0.36070000000000002          2.2019007883500308E-004
  0.36180000000000001          5.1468479796312749E-005
  0.36290000000000006         -1.1074812209699303E-004
  0.36400000000000005         -2.6594378869049251E-004
  0.36510000000000004         -4.1296411654911935E-004
  0.36620000000000003         -5.5151770357042551E-004
  0.36730000000000002         -6.8102544173598289E-004
  0.36840000000000006         -8.0061308108270168E-004
  0.36950000000000005         -9.1055681696161628E-004
  0.37060000000000004         -1.0100179351866245E-003
  0.37170000000000003         -1.0989631991833448E-003
  0.37280000000000002         -1.1777178151533008E-003
  0.37390000000000001         -1.2456715339794755E-003
  0.37500000000000006         -1.3033816358074546E-003
  0.37610000000000005         -1.3509887503460050E-003
  0.37720000000000004         -1.3883159263059497E-003
  0.37830000000000003         -1.4162844745442271E-003
  0.37940000000000002         -1.4349728589877486E-003
  0.38050000000000006         -1.4448066940531135E-003
  0.38160000000000005         -1.4466095017269254E-003
  0.38270000000000004         -1.4405739493668079E-003
  0.38380000000000003         -1.4273370616137981E-003
  0.38490000000000002         -1.4077099040150642E-003
  0.38600000000000001         -1.3822474284097552E-003
  0.38710000000000000         -1.3514860766008496E-003
  0.38819999999999999         -1.3164721895009279E-003
  0.38930000000000009         -1.2775597861036658E-003
  0.39040000000000008         -1.2353262864053249E-003
  0.39150000000000007         -1.1909403838217258E-003
  0.39260000000000006         -1.1445968411862850E-003
  0.39370000000000005         -1.0970229050144553E-003
  0.39480000000000004         -1.0491389548406005E-003
  0.39590000000000003         -1.0009565157815814E-003
  0.39700000000000002         -9.5311430050060153E-004
  0.39810000000000001         -9.0653105871751904E-004
  0.39920000000000000         -8.6098938481882215E-004
  0.40029999999999999         -8.1727711949497461E-004
  0.40140000000000009         -7.7595992479473352E-004
  0.40250000000000008         -7.3667755350470543E-004
  0.40360000000000007         -7.0019933627918363E-004
  0.40470000000000006         -6.6668307408690453E-004
  0.40580000000000005         -6.3576735556125641E-004
  0.40690000000000004         -6.0822931118309498E-004
  0.40800000000000003         -5.8374105719849467E-004
  0.40910000000000002         -5.6231091730296612E-004
  0.41020000000000001         -5.4406776325777173E-004
  0.41130000000000000         -5.2876328118145466E-004
  0.41239999999999999         -5.1636091666296124E-004
  0.41350000000000009         -5.0665665185078979E-004
  0.41460000000000008         -4.9983011558651924E-004
  0.41570000000000007         -4.9518898595124483E-004
  0.41680000000000006         -4.9282528925687075E-004
  0.41790000000000005         -4.9264804692938924E-004
  0.41900000000000004         -4.9380096606910229E-004
  0.42010000000000003         -4.9699796363711357E-004
  0.42120000000000002         -5.0143332919105887E-004
  0.42230000000000001         -5.0684792222455144E-004
  0.42340000000000000         -5.1357806660234928E-004
  0.42449999999999999         -5.2048586076125503E-004
  0.42560000000000009         -5.2810658235102892E-004
  0.42670000000000008         -5.3606426808983088E-004
  0.42780000000000007         -5.4389965953305364E-004
  0.42890000000000006         -5.5215827887877822E-004
  0.43000000000000005         -5.5976171279326081E-004
  0.43110000000000004         -5.6711869547143579E-004
  0.43220000000000003         -5.7406310224905610E-004
  0.43330000000000002         -5.8018398704007268E-004
  0.43440000000000001         -5.8615492889657617E-004
  0.43550000000000000         -5.9114716714248061E-004
  0.43659999999999999         -5.9557537315413356E-004
  0.43770000000000009         -5.9909408446401358E-004
  0.43880000000000008         -6.0160848079249263E-004
  0.43990000000000007         -6.0359394410625100E-004
  0.44100000000000006         -6.0436746571213007E-004
  0.44210000000000005         -6.0478737577795982E-004
  0.44320000000000004         -6.0423684772104025E-004
  0.44430000000000003         -6.0273706912994385E-004
  0.44540000000000002         -6.0099095571786165E-004
  0.44650000000000001         -5.9793551918119192E-004
  0.44760000000000000         -5.9479661285877228E-004
  0.44869999999999999         -5.9119361685588956E-004
  0.44980000000000009         -5.8673514286056161E-004
  0.45090000000000008         -5.8260635705664754E-004
  0.45200000000000007         -5.7763722725212574E-004
  0.45310000000000006         -5.7274423306807876E-004
  0.45420000000000005         -5.6802213657647371E-004
  0.45530000000000004         -5.6278781266883016E-004
  0.45640000000000003         -5.5814121151342988E-004
  0.45750000000000002         -5.5325700668618083E-004
  0.45860000000000001         -5.4866384016349912E-004
  0.45970000000000000         -5.4446235299110413E-004
  0.46079999999999999         -5.4033764172345400E-004
  0.46190000000000009         -5.3689017659053206E-004
  0.46300000000000008         -5.3342501632869244E-004
  0.46410000000000007         -5.3073617164045572E-004
  0.46520000000000006         -5.2824441809207201E-004
  0.46630000000000005         -5.2603689255192876E-004
  0.46740000000000004         -5.2491860697045922E-004
  0.46850000000000003         -5.2338780369609594E-004
  0.46960000000000002         -5.2282330580055714E-004
  0.47070000000000001         -5.2256096387282014E-004
  0.47180000000000000         -5.2182818762958050E-004
  0.47289999999999999         -5.2233273163437843E-004
  0.47400000000000009         -5.2232207963243127E-004
  0.47510000000000008         -5.2252248860895634E-004
  0.47620000000000007         -5.2334688371047378E-004
  0.47730000000000006         -5.2345631411299109E-004
  0.47840000000000005         -5.2399735432118177E-004