 -0.12000000000000000          0.0000000000000000     
 -0.11889999999999999          0.0000000000000000     
 -0.11780000000000000          0.0000000000000000     
 -0.11670000000000000          0.0000000000000000     
 -0.11559999999999999          0.0000000000000000     
 -0.11449999999999999          0.0000000000000000     
 -0.11340000000000000          0.0000000000000000     
 -0.11230000000000000          0.0000000000000000     
 -0.11119999999999999          0.0000000000000000     
 -0.11009999999999999          0.0000000000000000     
 -0.10900000000000000          0.0000000000000000     
 -0.10790000000000000          0.0000000000000000     
 -0.10679999999999999          0.0000000000000000     
 -0.10569999999999999          0.0000000000000000     
 -0.10460000000000000          0.0000000000000000     
 -0.10349999999999999          0.0000000000000000     
 -0.10239999999999999          0.0000000000000000     
 -0.10130000000000000          0.0000000000000000     
 -0.10020000000000000          0.0000000000000000     
  -9.9099999999999994E-002     0.0000000000000000     
  -9.7999999999999990E-002     0.0000000000000000     
  -9.6899999999999986E-002     0.0000000000000000     
  -9.5799999999999996E-002     0.0000000000000000     
  -9.4699999999999993E-002     0.0000000000000000     
  -9.3599999999999989E-002     0.0000000000000000     
  -9.2499999999999999E-002     0.0000000000000000     
  -9.1399999999999995E-002     0.0000000000000000     
  -9.0299999999999991E-002     0.0000000000000000     
  -8.9200000000000002E-002     0.0000000000000000     
  -8.8099999999999984E-002     0.0000000000000000     
  -8.6999999999999994E-002     0.0000000000000000     
  -8.5899999999999990E-002     0.0000000000000000     
  -8.4799999999999986E-002     0.0000000000000000     
  -8.3699999999999997E-002     0.0000000000000000     
  -8.2599999999999993E-002     0.0000000000000000     
  -8.1499999999999989E-002     0.0000000000000000     
  -8.0399999999999999E-002     0.0000000000000000     
  -7.9299999999999995E-002     0.0000000000000000     
  -7.8199999999999992E-002     0.0000000000000000     
  -7.7100000000000002E-002     0.0000000000000000     
  -7.5999999999999984E-002     0.0000000000000000     
  -7.4899999999999994E-002     0.0000000000000000     
  -7.3799999999999991E-002     0.0000000000000000     
  -7.2699999999999987E-002     0.0000000000000000     
  -7.1599999999999997E-002     0.0000000000000000     
  -7.0499999999999993E-002     0.0000000000000000     
  -6.9399999999999989E-002     0.0000000000000000     
  -6.8300000000000000E-002     0.0000000000000000     
  -6.7199999999999996E-002     0.0000000000000000     
  -6.6099999999999992E-002     0.0000000000000000     
  -6.5000000000000002E-002     0.0000000000000000     
  -6.3899999999999985E-002     0.0000000000000000     
  -6.2799999999999995E-002     0.0000000000000000     
  -6.1699999999999991E-002     0.0000000000000000     
  -6.0599999999999994E-002     0.0000000000000000     
  -5.9499999999999990E-002     0.0000000000000000     
  -5.8399999999999994E-002     0.0000000000000000     
  -5.7299999999999990E-002     0.0000000000000000     
  -5.6199999999999986E-002     0.0000000000000000     
  -5.5099999999999996E-002     0.0000000000000000     
  -5.3999999999999992E-002     0.0000000000000000     
  -5.2899999999999989E-002     0.0000000000000000     
  -5.1799999999999985E-002     0.0000000000000000     
  -5.0699999999999995E-002     0.0000000000000000     
  -4.9599999999999991E-002     0.0000000000000000     
  -4.8499999999999988E-002     0.0000000000000000     
  -4.7399999999999998E-002     0.0000000000000000     
  -4.6299999999999994E-002    -5.4738221262688167E-047
  -4.5199999999999990E-002     0.0000000000000000     
  -4.4099999999999986E-002     1.0947644252537633E-046
  -4.2999999999999997E-002     2.1895288505075267E-046
  -4.1899999999999993E-002    -2.7539958763047008E-046
  -4.0799999999999989E-002    -1.1529196091505100E-045
  -3.9699999999999985E-002    -9.8357950141135776E-046
  -3.8599999999999995E-002     2.3109646622521077E-045
  -3.7499999999999992E-002     6.5839628833758432E-045
  -3.6399999999999988E-002     4.0951157067994370E-045
  -3.5299999999999984E-002    -1.1523688859819955E-044
  -3.4199999999999994E-002    -3.1463777731291711E-044
  -3.3099999999999991E-002    -1.9886114225677182E-044
  -3.1999999999999987E-002     5.4702953965290706E-044
  -3.0899999999999997E-002     1.4929837913833289E-043
  -2.9799999999999993E-002     9.6191395123217744E-044
  -2.8699999999999989E-002    -2.4544071491358182E-043
  -2.7599999999999986E-002    -6.6760159636479674E-043
  -2.6499999999999996E-002    -4.5826280492222205E-043
  -2.5399999999999992E-002     9.8169740281133814E-043
  -2.4299999999999988E-002     2.8138138820107430E-042
  -2.3199999999999985E-002     2.1702197260455524E-042
  -2.2099999999999995E-002    -3.4798585727191279E-042
  -2.0999999999999991E-002    -1.1171374371999041E-041
  -1.9899999999999987E-002    -9.9914531801668487E-042
  -1.8799999999999983E-002     1.0547327814168507E-041
  -1.7699999999999994E-002     4.1499739080356370E-041
  -1.6599999999999990E-002     4.3847962313527215E-041
  -1.5499999999999986E-002    -2.4643417699174210E-041
  -1.4399999999999996E-002    -1.4273526819968893E-040
  -1.3299999999999992E-002    -1.8037469494512432E-040
  -1.2199999999999989E-002     2.4893224664067364E-041
  -1.1099999999999985E-002     4.4695305891231261E-040
  -9.9999999999999950E-003     6.8683998490062875E-040
  -8.8999999999999913E-003     1.5637359075288523E-040
  -7.7999999999999875E-003    -1.2373946650221153E-039
  -6.6999999999999837E-003    -2.3927749268701186E-039
  -5.5999999999999939E-003    -1.3321772160119452E-039
  -4.4999999999999901E-003     2.8458682589058330E-039
  -3.3999999999999864E-003     7.5177661619423715E-039
  -2.2999999999999826E-003     6.5965594370979094E-039
  -1.1999999999999927E-003    -4.4622213025161119E-039
  -9.9999999999988987E-005    -2.0827384048326097E-038
   1.0000000000000148E-003    -2.5667763953595601E-038
   2.1000000000000185E-003    -1.2004115102517095E-039
   3.2000000000000084E-003     4.8687841804890079E-038
   4.3000000000000121E-003     8.3476060207919995E-038
   5.4000000000000159E-003     4.4822357559930102E-038
   6.5000000000000058E-003    -8.5528741896563541E-038
   7.6000000000000234E-003    -2.2816621411199825E-037
   8.7000000000000133E-003    -2.2008858477753223E-037
   9.8000000000000032E-003     5.8400605175911629E-038
   1.0900000000000021E-002     5.0595127229453454E-037
   1.2000000000000011E-002     7.4129044095272379E-037
   1.3100000000000001E-002     3.2233100705454967E-037
   1.4200000000000018E-002    -7.9881522458995907E-037
   1.5300000000000008E-002    -1.9235342343919839E-036
   1.6400000000000026E-002    -1.8212901355459629E-036
   1.7500000000000016E-002     3.2297454744593768E-037
   1.8600000000000005E-002     3.7394964779350343E-036
   1.9700000000000023E-002     5.7699248599623972E-036
   2.0800000000000013E-002     3.3234601526257024E-036
   2.1900000000000003E-002    -4.2520970008894320E-036
   2.3000000000000020E-002    -1.2885481963835605E-035
   2.4100000000000010E-002    -1.4739856721069230E-035
   2.5200000000000000E-002    -3.4862297601908768E-036
   2.6300000000000018E-002     1.8604324536132020E-035
   2.7400000000000008E-002     3.7482482554638863E-035
   2.8500000000000025E-002     3.3409089712233263E-035
   2.9600000000000015E-002    -4.0015959484946408E-036
   3.0700000000000005E-002    -6.0662639352797199E-035
   3.1800000000000023E-002    -9.6778287211182812E-035
   3.2900000000000013E-002    -6.8400484764133696E-035
   3.4000000000000002E-002     3.5380276520638145E-035
   3.5100000000000020E-002     1.6501070001693426E-034
   3.6200000000000010E-002     2.2288910827414701E-034
   3.7300000000000028E-002     1.2501922492743829E-034
   3.8400000000000017E-002    -1.1914400234846675E-034
   3.9500000000000007E-002    -3.7242142166590499E-034
   4.0600000000000025E-002    -4.3446309893938320E-034
   4.1700000000000015E-002    -1.9123722845476518E-034
   4.2800000000000005E-002     2.5311871751689357E-034
   4.3900000000000022E-002     5.9765507501029347E-034
   4.5000000000000012E-002     5.6650645703976407E-034
   4.6100000000000002E-002     1.9139900226336696E-034
   4.7200000000000020E-002    -1.2901243365620562E-034
   4.8300000000000010E-002     1.0728436307059661E-035
   4.9400000000000027E-002     4.2230262006123420E-034
   5.0500000000000017E-002     9.3915135743445772E-035
   5.1600000000000007E-002    -2.0360022281328884E-033
   5.2700000000000025E-002    -5.4112159886811190E-033
   5.3800000000000014E-002    -6.6523517821514677E-033
   5.4900000000000004E-002    -8.6251151649307692E-034
   5.6000000000000022E-002     1.3670864797624275E-032
   5.7100000000000012E-002     2.9776704367071699E-032
   5.8200000000000002E-002     3.0568194007224803E-032
   5.9300000000000019E-002    -8.2438587797416221E-034
   6.0400000000000009E-002    -6.2081482465901205E-032
   6.1500000000000027E-002    -1.1591562943368362E-031
   6.2600000000000017E-002    -9.8407465177633146E-032
   6.3700000000000007E-002     3.5753624586644191E-032
   6.4800000000000024E-002     2.4730617458682691E-031
   6.5900000000000014E-002     3.7891026905163743E-031
   6.7000000000000004E-002     2.1958855254371593E-031
   6.8100000000000022E-002    -3.1440663649884363E-031
   6.9200000000000012E-002    -9.7216103308306300E-031
   7.0300000000000029E-002    -1.1332257695459718E-030
   7.1400000000000019E-002    -1.4097087386805753E-031
   7.2500000000000009E-002     2.0116225172839440E-030
   7.3600000000000027E-002     4.0445386980895296E-030
   7.4700000000000016E-002     3.5204775734429676E-030
   7.5800000000000006E-002    -1.6703404378378512E-030
   7.6900000000000024E-002    -1.0728281399003110E-029
   7.8000000000000014E-002    -1.7874401029255728E-029
   7.9100000000000004E-002    -1.3376078589068696E-029
   8.0200000000000021E-002     1.0431802841063278E-029
   8.1300000000000011E-002     4.9369150522567196E-029
   8.2400000000000029E-002     7.9872545220357160E-029
   8.3500000000000019E-002     6.3007233354071655E-029
   8.4600000000000009E-002    -3.3109672258524643E-029
   8.5700000000000026E-002    -1.9652380341852538E-028
   8.6800000000000016E-002    -3.4105897340602717E-028
   8.7900000000000006E-002    -3.1555913480015436E-028
   8.9000000000000024E-002     2.0345539192885772E-029
   9.0100000000000013E-002     6.6225286423131488E-028
   9.1200000000000003E-002     1.3345853123839439E-027
   9.2300000000000021E-002     1.4865581926290898E-027
   9.3400000000000011E-002     5.1767709089761067E-028
   9.4500000000000028E-002    -1.7631468990950681E-027
   9.5600000000000018E-002    -4.6299823309153291E-027
   9.6700000000000008E-002    -6.2577189325902227E-027
   9.7800000000000026E-002    -4.2754858925543534E-027
   9.8900000000000016E-002     2.7965986053173625E-027
  0.10000000000000001          1.3659860427822673E-026
  0.10110000000000002          2.3015984202230247E-026
  0.10220000000000001          2.2467820575095441E-026
  0.10330000000000003          4.4759177336245260E-027
  0.10440000000000002         -3.1306848935339013E-026
  0.10550000000000001         -7.2277338791896929E-026
  0.10660000000000003         -9.2382773615217143E-026
  0.10770000000000002         -6.1079114172694213E-026
  0.10880000000000001          3.7928634986732052E-026
  0.10990000000000003          1.8464947424511303E-025
  0.11100000000000002          3.1082516965822884E-025
  0.11210000000000001          3.1345165330769540E-025
  0.11320000000000002          1.0191266057281737E-025
  0.11430000000000001         -3.3102336472456113E-025
  0.11540000000000003         -8.4700445645665126E-025
  0.11650000000000002         -1.1568347488218222E-024
  0.11760000000000001         -9.1311733379615130E-025
  0.11870000000000003          9.7552695353696261E-026
  0.11980000000000002          1.7263656985981781E-024
  0.12090000000000001          3.3252525985119399E-024
  0.12200000000000003          3.8475453428304642E-024
  0.12310000000000001          2.2684496394990079E-024
  0.12420000000000003         -1.7488545185776703E-024
  0.12530000000000002         -7.2172176835866618E-024
  0.12640000000000001         -1.1639615480685045E-023
  0.12750000000000003         -1.1655586385043021E-023
  0.12860000000000002         -4.6024185863035397E-024
  0.12970000000000001          9.4474234353904556E-024
  0.13080000000000003          2.6152830378311865E-023
  0.13190000000000002          3.7092465892437557E-023
  0.13300000000000001          3.2515454346971607E-023
  0.13410000000000000          6.4017252128729498E-024
  0.13520000000000004         -3.7945399963970950E-023
  0.13630000000000003         -8.4814323976334015E-023
  0.13740000000000002         -1.0865103188250115E-022
  0.13850000000000001         -8.3707563308143653E-023
  0.13960000000000000          1.2287044378470756E-024
  0.14070000000000005          1.2901465802510246E-022
  0.14180000000000004          2.4969368229744587E-022
  0.14290000000000003          2.9259994735250416E-022
  0.14400000000000002          1.9616817022825907E-022
  0.14510000000000001         -5.3052405498388803E-023
  0.14620000000000000         -3.9003229676966645E-022
  0.14730000000000004         -6.7090000806022140E-022
  0.14840000000000003         -7.1680716346604984E-022
  0.14950000000000002         -3.9765461343513050E-022
  0.15060000000000001          2.7339870619507605E-022
  0.15170000000000000          1.0831623821405474E-021
  0.15280000000000005          1.6485505874080680E-021
  0.15390000000000004          1.5557242415327728E-021
  0.15500000000000003          5.7845546525122737E-022
  0.15610000000000002         -1.1124442492076379E-021
  0.15720000000000001         -2.8712814948481743E-021
  0.15830000000000000         -3.7343264002171034E-021
  0.15940000000000004         -2.8275818476845262E-021
  0.16050000000000003          9.3335686577262720E-023
  0.16160000000000002          4.2184578458532883E-021
  0.16270000000000001          7.6677799423684376E-021
  0.16380000000000000          8.0806997664705689E-021
  0.16490000000000005          3.7545522636788464E-021
  0.16600000000000004         -5.0579861187468674E-021
  0.16710000000000003         -1.5350320082916149E-020
  0.16820000000000002         -2.1743618876802366E-020
  0.16930000000000001         -1.8388100392492627E-020
  0.17040000000000000         -2.0426855327678407E-021
  0.17150000000000004          2.4808801652359284E-020
  0.17260000000000003          5.2486971039998320E-020
  0.17370000000000002          6.5852964822768039E-020
  0.17480000000000001          4.9809235164581309E-020
  0.17590000000000000         -2.6128051178110432E-021
  0.17700000000000005         -8.2627389273213929E-020
  0.17810000000000004         -1.6268030972870447E-019
  0.17920000000000003         -2.0163932069256001E-019
  0.18030000000000002         -1.5917632544879739E-019
  0.18140000000000001         -1.6156534061638399E-020
  0.18250000000000000          2.0643695101055792E-019
  0.18360000000000004          4.3984764089396896E-019
  0.18470000000000003          5.7945583633789280E-019
  0.18580000000000002          5.1848099035625325E-019
  0.18690000000000001          1.9629149082068487E-019
  0.18800000000000000         -3.5537184131657237E-019
  0.18910000000000005         -9.9012751858202874E-019
  0.19020000000000004         -1.4674568009648719E-018
  0.19130000000000003         -1.5221231637424176E-018
  0.19240000000000002         -9.6895762062440974E-019
  0.19350000000000001          1.9055399829811935E-019
  0.19460000000000005          1.7050423249381013E-018
  0.19570000000000004          3.0939055654140855E-018
  0.19680000000000003          3.7688431634649774E-018
  0.19790000000000002          3.2357580345469568E-018
  0.19900000000000001          1.3173155373865581E-018
  0.20010000000000000         -1.6880083890046994E-018
  0.20120000000000005         -4.9902551568531203E-018
  0.20230000000000004         -7.4772902363815244E-018
  0.20340000000000003         -8.0468152798928626E-018
  0.20450000000000002         -6.0099133492707532E-018
  0.20560000000000000         -1.4288144418232457E-018
  0.20670000000000005          4.7491506931149550E-018
  0.20780000000000004          1.0846161288121624E-017
  0.20890000000000003          1.4887314084549966E-017
  0.21000000000000002          1.5199512879720533E-017
  0.21110000000000001          1.0989648999847209E-017
  0.21220000000000000          2.7061480642368814E-018
  0.21330000000000005         -7.9500268473281460E-018
  0.21440000000000003         -1.8384426906128655E-017
  0.21550000000000002         -2.5736319434142009E-017
  0.21660000000000001         -2.7591366211846911E-017
  0.21770000000000000         -2.2588947923084376E-017
  0.21880000000000005         -1.0796480734841131E-017
  0.21990000000000004          6.1829119684201153E-018
  0.22100000000000003          2.5330628168848569E-017
  0.22210000000000002          4.2515278208007899E-017
  0.22320000000000001          5.2990347505584875E-017
  0.22430000000000000          5.2172586022740361E-017
  0.22540000000000004          3.6790011170210220E-017
  0.22650000000000003          6.3527559003818673E-018
  0.22760000000000002         -3.5376028459507514E-017
  0.22870000000000001         -7.9548146465007042E-017
  0.22980000000000000         -1.1284713734952830E-016
  0.23090000000000005         -1.2019135213051633E-016
  0.23200000000000004         -8.9533968490202439E-017
  0.23310000000000003         -1.7785470430117205E-017
  0.23420000000000002          8.4135676975099657E-017
  0.23530000000000001          1.8968885736930576E-016
  0.23640000000000000          2.6073656898198427E-016
  0.23750000000000004          2.5790193931946721E-016
  0.23860000000000003          1.5552488751964906E-016
  0.23970000000000002         -4.3131427698653825E-017
  0.24080000000000001         -2.9649701299186753E-016
  0.24190000000000000         -5.2697711962292317E-016
  0.24300000000000005         -6.3804777735508249E-016
  0.24410000000000004         -5.4442086349630344E-016
  0.24520000000000003         -2.0786034662892769E-016
  0.24630000000000002          3.3320915017926854E-016
  0.24740000000000001          9.5326503962247081E-016
  0.24850000000000005          1.4577590113655360E-015
  0.24960000000000004          1.6309946307306817E-015
  0.25070000000000003          1.3045342796061840E-015
  0.25180000000000002          4.2727626729809854E-016
  0.25290000000000001         -8.8652288993267065E-016
  0.25400000000000000         -2.3524390579073699E-015
  0.25510000000000005         -3.5647827694507333E-015
  0.25620000000000004         -4.0936858189071504E-015
  0.25730000000000003         -3.6078792601970921E-015
  0.25840000000000002         -1.9890195339650084E-015
  0.25950000000000001          5.9815322990906157E-016
  0.26060000000000005          3.7060155807454343E-015
  0.26170000000000004          6.6807997879014399E-015
  0.26280000000000003          8.7994129057575733E-015
  0.26390000000000002          9.4311591236322660E-015
  0.26500000000000001          8.1815873449259798E-015
  0.26610000000000000          4.9824863175706004E-015
  0.26720000000000005          1.1047963340417091E-016
  0.26830000000000004         -5.8591267193950944E-015
  0.26940000000000003         -1.2137796167211254E-014
  0.27050000000000002         -1.7814987315801815E-014
  0.27160000000000001         -2.1932407346185831E-014
  0.27270000000000005         -2.3537270678599929E-014
  0.27380000000000004         -2.1737787370157990E-014
  0.27490000000000003         -1.5794687376513866E-014
  0.27600000000000002         -5.2825617794993006E-015
  0.27710000000000001          9.6773078710540032E-015
  0.27820000000000000          2.8147307765274315E-014
  0.27930000000000005          4.8150921017305368E-014
  0.28040000000000004          6.6598776792772855E-014
  0.28150000000000003          7.9469491799247778E-014
  0.28260000000000002          8.2297747632063096E-014
  0.28370000000000001          7.0954454356026567E-014
  0.28480000000000005          4.2615815039928834E-014
  0.28590000000000004         -3.2420527114047643E-015
  0.28700000000000003         -6.4033854114147447E-014
  0.28810000000000002         -1.3363761241294581E-013
  0.28920000000000001         -2.0251126101284965E-013
  0.29030000000000000         -2.5841238441864809E-013
  0.29140000000000005         -2.8775944367548413E-013
  0.29250000000000004         -2.7748871422371709E-013
  0.29360000000000003         -2.1730273148571866E-013
  0.29470000000000002         -1.0205216364495730E-013
  0.29580000000000001          6.6032860971456166E-014
  0.29690000000000005          2.7563913464623308E-013
  0.29800000000000004          5.0560096651069500E-013
  0.29910000000000003          7.2545009853508329E-013
  0.30020000000000002          8.9757257524712349E-013
  0.30130000000000001          9.8114536838671591E-013
  0.30240000000000000          9.3774874743047955E-013
  0.30350000000000005          7.3796219052007910E-013
  0.30460000000000004          3.6824991912044517E-013
  0.30570000000000003         -1.6282332592417381E-013
  0.30680000000000002         -8.2041512910780463E-013
  0.30790000000000001         -1.5421801024886022E-012
  0.30900000000000005         -2.2408952824804293E-012
  0.31010000000000004         -2.8111988775864865E-012
  0.31120000000000003         -3.1403959187192014E-012
  0.31230000000000002         -3.1224920076330695E-012
  0.31340000000000001         -2.6746057878312475E-012
  0.31450000000000006         -1.7532063056480731E-012
  0.31560000000000005         -3.6850347470421011E-013
  0.31670000000000004          1.4058270824704884E-012
  0.31780000000000003          3.4298315824135855E-012
  0.31890000000000002          5.5031285287833781E-012
  0.32000000000000001          7.3806884074537257E-012
  0.32110000000000005          8.7968707829240465E-012
  0.32220000000000004          9.4959500531331915E-012
  0.32330000000000003          9.2652561321494818E-012
  0.32440000000000002          7.9656282013159434E-012
  0.32550000000000001          5.5535536027689281E-012
  0.32660000000000006          2.0938445028990375E-012
  0.32770000000000005         -2.2414685478480312E-012
  0.32880000000000004         -7.1840194973580029E-012
  0.32990000000000003         -1.2389212394713353E-011
  0.33100000000000002         -1.7462005412582281E-011
  0.33210000000000001         -2.1979972433897197E-011
  0.33320000000000005         -2.5514082826357376E-011
  0.33430000000000004         -2.7640527854486848E-011
  0.33540000000000003         -2.7949722519486665E-011
  0.33650000000000002         -2.6045514887929802E-011
  0.33760000000000001         -2.1547924254524001E-011
  0.33870000000000006         -1.4095424385523167E-011
  0.33980000000000005         -3.3432101332115858E-012
  0.34090000000000004          1.1020986462987172E-011
  0.34200000000000003          2.9263854230370963E-011
  0.34310000000000002          5.1569885054770382E-011
  0.34420000000000001          7.7971882065425312E-011
  0.34530000000000005          1.0827228299418030E-010
  0.34640000000000004          1.4195311064129360E-010
  0.34750000000000003          1.7799481226797357E-010
  0.34860000000000002          2.1470890000242368E-010
  0.34970000000000001          2.4951506356794814E-010
  0.35080000000000006          2.7868339859292976E-010
  0.35190000000000005          2.9707022709685214E-010
  0.35300000000000004          2.9775550330742236E-010
  0.35410000000000003          2.7176278698645666E-010
  0.35520000000000002          2.0777620337736428E-010
  0.35630000000000001          9.1541306284745700E-011
  0.35740000000000005         -9.4355290027746927E-011
  0.35850000000000004         -3.7101196586490740E-010
  0.35960000000000003         -7.6371863720446523E-010
  0.36070000000000002         -1.3027796606823761E-009
  0.36180000000000001         -2.0241684116535814E-009
  0.36290000000000006         -2.9703541260676919E-009
  0.36400000000000005         -4.1929240929608258E-009
  0.36510000000000004         -5.7536761813578032E-009
  0.36620000000000003         -7.7283443777836877E-009
  0.36730000000000002         -1.0209216770282470E-008
  0.36840000000000006         -1.3309599543483529E-008
  0.36950000000000005         -1.7167834946063346E-008
  0.37060000000000004         -2.1955119104944360E-008
  0.37170000000000003         -2.7878849160407939E-008
  0.37280000000000002         -3.5195985637099687E-008
  0.37390000000000001         -4.4215841735195067E-008
  0.37500000000000006         -5.5307561132115253E-008
  0.37610000000000005         -6.8918000849794019E-008
  0.37720000000000004         -8.5574435044758689E-008
  0.37830000000000003         -1.0591612225174703E-007
  0.37940000000000002         -1.3068318199275327E-007
  0.38050000000000006         -1.6073693545742643E-007
  0.38160000000000005         -1.9712302960310417E-007
  0.38270000000000004         -2.4103760800506690E-007
  0.38380000000000003         -2.9389800988368039E-007
  0.38490000000000002         -3.5728037970336518E-007
  0.38600000000000001         -4.3306462416981796E-007
  0.38710000000000000         -5.2341735234408870E-007
  0.38819999999999999         -6.3077255749396954E-007
  0.38930000000000009         -7.5790581540741904E-007
  0.39040000000000008         -9.0809443059682805E-007
  0.39150000000000007         -1.0850107200064261E-006
  0.39260000000000006         -1.2925737778336365E-006
  0.39370000000000005         -1.5354624170676952E-006
  0.39480000000000004         -1.8189312727065284E-006
  0.39590000000000003         -2.1485730831347197E-006
  0.39700000000000002         -2.5305956498053222E-006
  0.39810000000000001         -2.9721807775490291E-006
  0.39920000000000000         -3.4813554837753941E-006
  0.40029999999999999         -4.0659985314837443E-006
  0.40140000000000009         -4.7356919538676457E-006
  0.40250000000000008         -5.5004260698637689E-006
  0.40360000000000007         -6.3708653112692069E-006
  0.40470000000000006         -7.3577760985724973E-006
  0.40580000000000005         -8.4733833750450329E-006
  0.40690000000000004         -9.7313732642254286E-006
  0.40800000000000003         -1.1144803314634254E-005
  0.40910000000000002         -1.2727864656475300E-005
  0.41020000000000001         -1.4494286232667167E-005
  0.41130000000000000         -1.6460270748419115E-005
  0.41239999999999999         -1.8637658707733383E-005
  0.41350000000000009         -2.1045799623323528E-005
  0.41460000000000008         -2.3697180807816351E-005
  0.41570000000000007         -2.6609758199310331E-005
  0.41680000000000006         -2.9794752211886400E-005
  0.41790000000000005         -3.3263201614732569E-005
  0.41900000000000004         -3.7031821325675960E-005
  0.42010000000000003         -4.1110387938866812E-005
  0.42120000000000002         -4.5505973822701452E-005
  0.42230000000000001         -5.0228971938915453E-005
  0.42340000000000000         -5.5287973074429628E-005
  0.42449999999999999         -6.0683775041935756E-005
  0.42560000000000009         -6.6410704678020183E-005
  0.42670000000000008         -7.2466586849086450E-005
  0.42780000000000007         -7.8848865486054638E-005
  0.42890000000000006         -8.5535931741896609E-005
  0.43000000000000005         -9.2526582560754737E-005
  0.43110000000000004         -9.9798347936614316E-005
  0.43220000000000003         -1.0732213813251582E-004
  0.43330000000000002         -1.1507635814123453E-004
  0.43440000000000001         -1.2304702751691999E-004
  0.43550000000000000         -1.3115959179846228E-004
  0.43659999999999999         -1.3940554034472773E-004
  0.43770000000000009         -1.4773135176893767E-004
  0.43880000000000008         -1.5607447296085274E-004
  0.43990000000000007         -1.6439180665408452E-004
  0.44100000000000006         -1.7260921346605451E-004
  0.44210000000000005         -1.8071414669878702E-004
  0.44320000000000004         -1.8861188769669218E-004
  0.44430000000000003         -1.9626563265002887E-004
  0.44540000000000002         -2.0362843680472430E-004
  0.44650000000000001         -2.1059229929989206E-004
  0.44760000000000000         -2.1713148868695263E-004
  0.44869999999999999         -2.2316263907000422E-004
  0.44980000000000009         -2.2862666574660368E-004
  0.45090000000000008         -2.3347730495796443E-004
  0.45200000000000007         -2.3770980467139203E-004
  0.45310000000000006         -2.4124061160120999E-004
  0.45420000000000005         -2.4403288584453221E-004
  0.45530000000000004         -2.4605135351097457E-004
  0.45640000000000003         -2.4729128958902655E-004
  0.45750000000000002         -2.4776301331373360E-004
  0.45860000000000001         -2.4742279793303623E-004
  0.45970000000000000         -2.4623579093301876E-004
  0.46079999999999999         -2.4421621020995384E-004
  0.46190000000000009         -2.4141673847783221E-004
  0.46300000000000008         -2.3787184983187779E-004
  0.46410000000000007         -2.3359377891569348E-004
  0.46520000000000006         -2.2857369263627183E-004
  0.46630000000000005         -2.2282946846224200E-004
  0.46740000000000004         -2.1650868022037592E-004
  0.46850000000000003         -2.0964281025601626E-004
  0.46960000000000002         -2.0223418643392443E-004
  0.47070000000000001         -1.9436954669275705E-004
  0.47180000000000000         -1.8611332850101080E-004
  0.47289999999999999         -1.7760146952372599E-004
  0.47400000000000009         -1.6880362743362711E-004
  0.47510000000000008         -1.5970817399585011E-004
  0.47620000000000007         -1.5033180292229489E-004
  0.47730000000000006         -1.4082717838931119E-004
  0.47840000000000005         -1.3128865059964474E-004