 -0.12000000000000000          0.0000000000000000     
 -0.11889999999999999          0.0000000000000000     
 -0.11780000000000000          0.0000000000000000     
 -0.11670000000000000          0.0000000000000000     
 -0.11559999999999999          0.0000000000000000     
 -0.11449999999999999          0.0000000000000000     
 -0.11340000000000000          0.0000000000000000     
 -0.11230000000000000          0.0000000000000000     
 -0.11119999999999999          0.0000000000000000     
 -0.11009999999999999          0.0000000000000000     
 -0.10900000000000000          0.0000000000000000     
 -0.10790000000000000          0.0000000000000000     
 -0.10679999999999999          0.0000000000000000     
 -0.10569999999999999          0.0000000000000000     
 -0.10460000000000000          0.0000000000000000     
 -0.10349999999999999          0.0000000000000000     
 -0.10239999999999999          0.0000000000000000     
 -0.10130000000000000          0.0000000000000000     
 -0.10020000000000000          0.0000000000000000     
  -9.9099999999999994E-002     0.0000000000000000     
  -9.7999999999999990E-002     0.0000000000000000     
  -9.6899999999999986E-002     0.0000000000000000     
  -9.5799999999999996E-002     0.0000000000000000     
  -9.4699999999999993E-002     0.0000000000000000     
  -9.3599999999999989E-002     0.0000000000000000     
  -9.2499999999999999E-002     0.0000000000000000     
  -9.1399999999999995E-002     0.0000000000000000     
  -9.0299999999999991E-002     0.0000000000000000     
  -8.9200000000000002E-002     0.0000000000000000     
  -8.8099999999999984E-002     0.0000000000000000     
  -8.6999999999999994E-002     0.0000000000000000     
  -8.5899999999999990E-002     0.0000000000000000     
  -8.4799999999999986E-002     0.0000000000000000     
  -8.3699999999999997E-002     0.0000000000000000     
  -8.2599999999999993E-002     0.0000000000000000     
  -8.1499999999999989E-002     0.0000000000000000     
  -8.0399999999999999E-002     0.0000000000000000     
  -7.9299999999999995E-002     0.0000000000000000     
  -7.8199999999999992E-002     0.0000000000000000     
  -7.7100000000000002E-002     0.0000000000000000     
  -7.5999999999999984E-002     0.0000000000000000     
  -7.4899999999999994E-002     0.0000000000000000     
  -7.3799999999999991E-002     0.0000000000000000     
  -7.2699999999999987E-002     0.0000000000000000     
  -7.1599999999999997E-002     0.0000000000000000     
  -7.0499999999999993E-002     0.0000000000000000     
  -6.9399999999999989E-002     0.0000000000000000     
  -6.8300000000000000E-002     0.0000000000000000     
  -6.7199999999999996E-002     0.0000000000000000     
  -6.6099999999999992E-002     0.0000000000000000     
  -6.5000000000000002E-002     0.0000000000000000     
  -6.3899999999999985E-002     0.0000000000000000     
  -6.2799999999999995E-002     0.0000000000000000     
  -6.1699999999999991E-002     0.0000000000000000     
  -6.0599999999999994E-002     0.0000000000000000     
  -5.9499999999999990E-002     0.0000000000000000     
  -5.8399999999999994E-002     0.0000000000000000     
  -5.7299999999999990E-002     0.0000000000000000     
  -5.6199999999999986E-002     0.0000000000000000     
  -5.5099999999999996E-002     0.0000000000000000     
  -5.3999999999999992E-002     0.0000000000000000     
  -5.2899999999999989E-002     0.0000000000000000     
  -5.1799999999999985E-002     0.0000000000000000     
  -5.0699999999999995E-002     0.0000000000000000     
  -4.9599999999999991E-002     0.0000000000000000     
  -4.8499999999999988E-002     0.0000000000000000     
  -4.7399999999999998E-002     0.0000000000000000     
  -4.6299999999999994E-002     0.0000000000000000     
  -4.5199999999999990E-002     0.0000000000000000     
  -4.4099999999999986E-002     0.0000000000000000     
  -4.2999999999999997E-002     0.0000000000000000     
  -4.1899999999999993E-002     0.0000000000000000     
  -4.0799999999999989E-002     0.0000000000000000     
  -3.9699999999999985E-002     0.0000000000000000     
  -3.8599999999999995E-002     0.0000000000000000     
  -3.7499999999999992E-002     0.0000000000000000     
  -3.6399999999999988E-002     0.0000000000000000     
  -3.5299999999999984E-002     0.0000000000000000     
  -3.4199999999999994E-002     0.0000000000000000     
  -3.3099999999999991E-002     0.0000000000000000     
  -3.1999999999999987E-002     0.0000000000000000     
  -3.0899999999999997E-002     0.0000000000000000     
  -2.9799999999999993E-002     0.0000000000000000     
  -2.8699999999999989E-002     0.0000000000000000     
  -2.7599999999999986E-002     0.0000000000000000     
  -2.6499999999999996E-002     0.0000000000000000     
  -2.5399999999999992E-002     0.0000000000000000     
  -2.4299999999999988E-002     0.0000000000000000     
  -2.3199999999999985E-002     0.0000000000000000     
  -2.2099999999999995E-002     0.0000000000000000     
  -2.0999999999999991E-002     0.0000000000000000     
  -1.9899999999999987E-002     0.0000000000000000     
  -1.8799999999999983E-002     0.0000000000000000     
  -1.7699999999999994E-002     0.0000000000000000     
  -1.6599999999999990E-002     0.0000000000000000     
  -1.5499999999999986E-002     0.0000000000000000     
  -1.4399999999999996E-002     0.0000000000000000     
  -1.3299999999999992E-002     0.0000000000000000     
  -1.2199999999999989E-002     0.0000000000000000     
  -1.1099999999999985E-002     0.0000000000000000     
  -9.9999999999999950E-003     0.0000000000000000     
  -8.8999999999999913E-003    -4.8750568797519910E-051
  -7.7999999999999875E-003    -1.1433820505249269E-046
  -6.6999999999999837E-003    -2.2867478536343586E-046
  -5.5999999999999939E-003    -1.1443246377713060E-046
  -4.4999999999999901E-003     6.8572802515281237E-046
  -3.3999999999999864E-003     1.9434213194788241E-045
  -2.2999999999999826E-003     2.7445750671837288E-045
  -1.1999999999999927E-003     9.0439035679119667E-046
  -9.9999999999988987E-005    -1.4897131784723187E-045
   1.0000000000000148E-003    -7.5771716299911226E-045
   2.1000000000000185E-003    -2.0059016144663866E-044
   3.2000000000000084E-003    -2.8846568646793581E-044
   4.3000000000000121E-003    -1.3830547896980197E-044
   5.4000000000000159E-003     4.3160500348231120E-044
   6.5000000000000058E-003     1.4730202382744258E-043
   7.6000000000000234E-003     2.5556618724293250E-043
   8.7000000000000133E-003     2.5579015698295845E-043
   9.8000000000000032E-003    -2.1071734539886180E-044
   1.0900000000000021E-002    -7.0290583463830284E-043
   1.2000000000000011E-002    -1.6923328310525143E-042
   1.3100000000000001E-002    -2.4306946642604092E-042
   1.4200000000000018E-002    -1.8149251056850216E-042
   1.5300000000000008E-002     1.4809527878469492E-042
   1.6400000000000026E-002     7.9983426433254625E-042
   1.7500000000000016E-002     1.5901472196896276E-041
   1.8600000000000005E-002     1.9504784609984685E-041
   1.9700000000000023E-002     9.5613328878371554E-042
   2.0800000000000013E-002    -2.2705490792964048E-041
   2.1900000000000003E-002    -7.6772047476476089E-041
   2.3000000000000020E-002    -1.3130824946921770E-040
   2.4100000000000010E-002    -1.3725808423620082E-040
   2.5200000000000000E-002    -2.7518575007444539E-041
   2.6300000000000018E-002     2.4515259392426640E-040
   2.7400000000000008E-002     6.4173499274542771E-040
   2.8500000000000025E-002     9.6687466461543699E-040
   2.9600000000000015E-002     8.5241949363864867E-040
   3.0700000000000005E-002    -1.2843716591071299E-040
   3.1800000000000023E-002    -2.1640628211973198E-039
   3.2900000000000013E-002    -4.7695386382479414E-039
   3.4000000000000002E-002    -6.4270275177092995E-039
   3.5100000000000020E-002    -4.6870082514446677E-039
   3.6200000000000010E-002     2.8463635863585205E-039
   3.7300000000000028E-002     1.6495844508730919E-038
   3.8400000000000017E-002     3.1995416776896479E-038
   3.9500000000000007E-002     3.8988539675967116E-038
   4.0600000000000025E-002     2.2812430856668899E-038
   4.1700000000000015E-002    -2.8436992745513116E-038
   4.2800000000000005E-002    -1.1171188718995447E-037
   4.3900000000000022E-002    -1.9602897051656846E-037
   4.5000000000000012E-002    -2.1798696366320860E-037
   4.6100000000000002E-002    -9.7687848992191377E-038
   4.7200000000000020E-002     2.1705269624517768E-037
   4.8300000000000010E-002     6.8422942398854152E-037
   4.9400000000000027E-002     1.1075154913937744E-036
   5.0500000000000017E-002     1.1334086889733814E-036
   5.1600000000000007E-002     3.6167843428751628E-037
   5.2700000000000025E-002    -1.4066210265540308E-036
   5.3800000000000014E-002    -3.8378988993896123E-036
   5.4900000000000004E-002    -5.8157218828731174E-036
   5.6000000000000022E-002    -5.5245543496008269E-036
   5.7100000000000012E-002    -1.1059013913289882E-036
   5.8200000000000002E-002     8.0729693221713972E-036
   5.9300000000000019E-002     1.9895972857063067E-035
   6.0400000000000009E-002     2.8566309423377492E-035
   6.1500000000000027E-002     2.5419579242179081E-035
   6.2600000000000017E-002     2.3996327429091513E-036
   6.3700000000000007E-002    -4.1952401748441516E-035
   6.4800000000000024E-002    -9.5989256408695311E-035
   6.5900000000000014E-002    -1.3190759089323207E-034
   6.7000000000000004E-002    -1.1102326300874012E-034
   6.8100000000000022E-002    -5.5184240588365998E-037
   6.9200000000000012E-002     2.0007947495964445E-034
   7.0300000000000029E-002     4.3323900117536446E-034
   7.1400000000000019E-002     5.7472688571516834E-034
   7.2500000000000009E-002     4.6213845266070136E-034
   7.3600000000000027E-002    -3.0316039976284224E-035
   7.4700000000000016E-002    -8.8356591947506246E-034
   7.5800000000000006E-002    -1.8363350321213666E-033
   7.6900000000000024E-002    -2.3688728763499538E-033
   7.8000000000000014E-002    -1.8377200062388696E-033
   7.9100000000000004E-002     2.1350118842591850E-034
   8.0200000000000021E-002     3.6353223069757904E-033
   8.1300000000000011E-002     7.3299169548854204E-033
   8.2400000000000029E-002     9.2512560013791900E-033
   8.3500000000000019E-002     6.9874181643662729E-033
   8.4600000000000009E-002    -1.0297154156121661E-033
   8.5700000000000026E-002    -1.3996787876305903E-032
   8.6800000000000016E-002    -2.7606517515749757E-032
   8.7900000000000006E-002    -3.4260616615929797E-032
   8.9000000000000024E-002    -2.5393316541690473E-032
   9.0100000000000013E-002     4.0994404950561538E-033
   9.1200000000000003E-002     5.0596060626141145E-032
   9.2300000000000021E-002     9.8236208537496178E-032
   9.3400000000000011E-002     1.2034770050588932E-031
   9.4500000000000028E-002     8.8086554450870296E-032
   9.5600000000000018E-002    -1.4268042611215773E-032
   9.6700000000000008E-002    -1.7216654056134205E-031
   9.7800000000000026E-002    -3.3059972560790362E-031
   9.8900000000000016E-002    -4.0094611561565543E-031
  0.10000000000000001         -2.9109198748868549E-031
  0.10110000000000002          4.4664682159268269E-032
  0.10220000000000001          5.5279652209432235E-031
  0.10330000000000003          1.0530899823664929E-030
  0.10440000000000002          1.2665462621677854E-030
  0.10550000000000001          9.1422337429735162E-031
  0.10660000000000003         -1.2870913266704552E-031
  0.10770000000000002         -1.6791520047829463E-030
  0.10880000000000001         -3.1781045754800945E-030
  0.10990000000000003         -3.7925597676793160E-030
  0.11100000000000002         -2.7218258258572599E-030
  0.11210000000000001          3.5200502847719692E-031
  0.11320000000000002          4.8407276686011852E-030
  0.11430000000000001          9.0987284633794445E-030
  0.11540000000000003          1.0764896503456926E-029
  0.11650000000000002          7.6616488479399183E-030
  0.11760000000000001         -9.5594255857850279E-031
  0.11870000000000003         -1.3299978129437315E-029
  0.11980000000000002         -2.4761140199426489E-029
  0.12090000000000001         -2.8977767923326353E-029
  0.12200000000000003         -2.0341280411112372E-029
  0.12310000000000001          2.7146271622044495E-030
  0.12420000000000003          3.5016893910904220E-029
  0.12530000000000002          6.4245913793715914E-029
  0.12640000000000001          7.4078885500733370E-029
  0.12750000000000003          5.0838068159597545E-029
  0.12860000000000002         -8.2707507899984593E-030
  0.12970000000000001         -8.8929220963693291E-029
  0.13080000000000003         -1.5961238338703236E-028
  0.13190000000000002         -1.8033694617578627E-028
  0.13300000000000001         -1.1950849222155899E-028
  0.13410000000000000          2.6407140609243499E-029
  0.13520000000000004          2.1935334738375643E-028
  0.13630000000000003          3.8181461982468521E-028
  0.13740000000000002          4.1997392181625581E-028
  0.13850000000000001          2.6461133122402196E-028
  0.13960000000000000         -8.3995820852352033E-029
  0.14070000000000005         -5.2848118357501874E-028
  0.14180000000000004         -8.8502971039147706E-028
  0.14290000000000003         -9.4189402506346547E-028
  0.14400000000000002         -5.5480305741691730E-028
  0.14510000000000001          2.5473424178190622E-028
  0.14620000000000000          1.2467296939965674E-027
  0.14730000000000004          1.9994991326858075E-027
  0.14840000000000003          2.0511813757541429E-027
  0.14950000000000002          1.1142130478506517E-027
  0.15060000000000001         -7.1742847401362699E-028
  0.15170000000000000         -2.8742408360309703E-027
  0.15280000000000005         -4.4185013182342063E-027
  0.15390000000000004         -4.3723679123036897E-027
  0.15500000000000003         -2.1835375797955039E-027
  0.15610000000000002          1.8524978435522573E-027
  0.15720000000000001          6.4366999058854260E-027
  0.15830000000000000          9.5467555802539150E-027
  0.15940000000000004          9.1671067530826978E-027
  0.16050000000000003          4.2667554826086820E-027
  0.16160000000000002         -4.3667236124285000E-027
  0.16270000000000001         -1.3890016124156336E-026
  0.16380000000000000         -2.0077609011766533E-026
  0.16490000000000005         -1.8882129619798419E-026
  0.16600000000000004         -8.4213307730483739E-027
  0.16710000000000003          9.4228199552271640E-027
  0.16820000000000002          2.8682197365534732E-026
  0.16930000000000001          4.0817004089749984E-026
  0.17040000000000000          3.7924440952704760E-026
  0.17150000000000004          1.6647173537598859E-026
  0.17260000000000003         -1.8851713605339025E-026
  0.17370000000000002         -5.6536592895229051E-026
  0.17480000000000001         -7.9728939179745956E-026
  0.17590000000000000         -7.3473792585276335E-026
  0.17700000000000005         -3.1987913770757587E-026
  0.17810000000000004          3.5978339908912149E-026
  0.17920000000000003          1.0697816621721620E-025
  0.18030000000000002          1.4948076269445762E-025
  0.18140000000000001          1.3611859363575697E-025
  0.18250000000000000          5.7473330841710983E-026
  0.18360000000000004         -6.8569804867022897E-026
  0.18470000000000003         -1.9747824652647360E-025
  0.18580000000000002         -2.7121580164684347E-025
  0.18690000000000001         -2.4123609904253983E-025
  0.18800000000000000         -9.3395654762466002E-026
  0.18910000000000005          1.3620088017993598E-025
  0.19020000000000004          3.6419937716694662E-025
  0.19130000000000003          4.8555465027300055E-025
  0.19240000000000002          4.1595046417059358E-025
  0.19350000000000001          1.3609540804652484E-025
  0.19460000000000005         -2.8195662238297870E-025
  0.19570000000000004         -6.8332016086961087E-025
  0.19680000000000003         -8.7897483117435960E-025
  0.19790000000000002         -7.2301087126049397E-025
  0.19900000000000001         -1.9071552890494988E-025
  0.20010000000000000          5.7781603434119912E-025
  0.20120000000000005          1.2973413617821859E-024
  0.20230000000000004          1.6279384517448929E-024
  0.20340000000000003          1.3137285531819124E-024
  0.20450000000000002          3.1982327541984043E-025
  0.20560000000000000         -1.0943848757854841E-024
  0.20670000000000005         -2.4144302901790047E-024
  0.20780000000000004         -3.0332000274674612E-024
  0.20890000000000003         -2.4950383866534196E-024
  0.21000000000000002         -7.3360452360886555E-025
  0.21110000000000001          1.8028922276365496E-024
  0.21220000000000000          4.2210968214224862E-024
  0.21330000000000005          5.4622404676765227E-024
  0.21440000000000003          4.7191667770275379E-024
  0.21550000000000002          1.8407060147464401E-024
  0.21660000000000001         -2.4550960855825999E-024
  0.21770000000000000         -6.6940294973765516E-024
  0.21880000000000005         -9.1079831296971969E-024
  0.21990000000000004         -8.3224806468428942E-024
  0.22100000000000003         -4.0208777389882761E-024
  0.22210000000000002          2.7062314482723720E-024
  0.22320000000000001          9.5426330297587980E-024
  0.22430000000000000          1.3689813542780281E-023
  0.22540000000000004          1.2964805438819889E-023
  0.22650000000000003          6.8486543442841666E-024
  0.22760000000000002         -2.9793809854949741E-024
  0.22870000000000001         -1.2956736417049160E-023
  0.22980000000000000         -1.8833233360426967E-023
  0.23090000000000005         -1.7399673726828625E-023
  0.23200000000000004         -8.0971059340737501E-024
  0.23310000000000003          6.2260609317719891E-024
  0.23420000000000002          1.9916776935257239E-023
  0.23530000000000001          2.6492827894450469E-023
  0.23640000000000000          2.1401123946195037E-023
  0.23750000000000004          4.4997531154143329E-024
  0.23860000000000003         -1.8896771112949992E-023
  0.23970000000000002         -3.9183860990768035E-023
  0.24080000000000001         -4.5813159037903280E-023
  0.24190000000000000         -3.1825526318510036E-023
  0.24300000000000005          2.1545405434894171E-024
  0.24410000000000004          4.6326008871090842E-023
  0.24520000000000003          8.3745330541837293E-023
  0.24630000000000002          9.5916199275248518E-023
  0.24740000000000001          7.0331006120427032E-023
  0.24850000000000005          7.1959054486281017E-024
  0.24960000000000004         -7.7655944474541492E-023
  0.25070000000000003         -1.5567301987812465E-022
  0.25180000000000002         -1.9430758472956051E-022
  0.25290000000000001         -1.6914561912804219E-022
  0.25400000000000000         -7.5188774622303189E-023
  0.25510000000000005          6.7400021642347672E-023
  0.25620000000000004          2.1636581357872322E-022
  0.25730000000000003          3.1953405424797057E-022
  0.25840000000000002          3.3277367175114420E-022
  0.25950000000000001          2.3760445332250779E-022
  0.26060000000000005          5.1521716381202186E-023
  0.26170000000000004         -1.7397818586103847E-022
  0.26280000000000003         -3.6846896205913051E-022
  0.26390000000000002         -4.6642956801976212E-022
  0.26500000000000001         -4.3145569114787599E-022
  0.26610000000000000         -2.7131727762837011E-022
  0.26720000000000005         -3.6974598371021783E-023
  0.26830000000000004          1.9548695639710905E-022
  0.26940000000000003          3.5402038318079757E-022
  0.27050000000000002          3.9951763239543949E-022
  0.27160000000000001          3.4190264920314343E-022
  0.27270000000000005          2.3497890117584330E-022
  0.27380000000000004          1.5001443180103861E-022
  0.27490000000000003          1.3774277619364277E-022
  0.27600000000000002          1.9536156913752293E-022
  0.27710000000000001          2.5569968037286148E-022
  0.27820000000000000          2.0863896077794688E-022
  0.27930000000000005         -4.8145180865278182E-023
  0.28040000000000004         -5.4636825224852858E-022
  0.28150000000000003         -1.1990542847127317E-021
  0.28260000000000002         -1.7937035341675027E-021
  0.28370000000000001         -2.0413002324845024E-021
  0.28480000000000005         -1.6749689512930660E-021
  0.28590000000000004         -5.6952535415059589E-022
  0.28700000000000003          1.1621110487220929E-021
  0.28810000000000002          3.1399984462396576E-021
  0.28920000000000001          4.7826279040239379E-021
  0.29030000000000000          5.4622419911214002E-021
  0.29140000000000005          4.7103694097212136E-021
  0.29250000000000004          2.4082302336819357E-021
  0.29360000000000003         -1.1081041650975696E-021
  0.29470000000000002         -5.0770400704057476E-021
  0.29580000000000001         -8.4826170953606264E-021
  0.29690000000000005         -1.0325459669198047E-020
  0.29800000000000004         -9.9126516047629530E-021
  0.29910000000000003         -7.0732860431246406E-021
  0.30020000000000002         -2.2276201256121405E-021
  0.30130000000000001          3.7131606440013214E-021
  0.30240000000000000          9.5798755387100537E-021
  0.30350000000000005          1.4227270525706174E-020
  0.30460000000000004          1.6767081226707516E-020
  0.30570000000000003          1.6681081817205129E-020
  0.30680000000000002          1.3801669623919008E-020
  0.30790000000000001          8.2140911331376868E-021
  0.30900000000000005          1.7756110339865771E-022
  0.31010000000000004         -9.8423179920552699E-021
  0.31120000000000003         -2.0997537006397446E-020
  0.31230000000000002         -3.1802820165948543E-020
  0.31340000000000001         -3.9961223909614339E-020
  0.31450000000000006         -4.2473335907475253E-020
  0.31560000000000005         -3.6188577287482919E-020
  0.31670000000000004         -1.8815326122313519E-020
  0.31780000000000003          9.8000594497059910E-021
  0.31890000000000002          4.6520655517766087E-020
  0.32000000000000001          8.4405154893382755E-020
  0.32110000000000005          1.1330107694161623E-019
  0.32220000000000004          1.2177592796716593E-019
  0.32330000000000003          1.0021819461823111E-019
  0.32440000000000002          4.4477736356358964E-020
  0.32550000000000001         -4.0969248962083230E-020
  0.32660000000000006         -1.4150016191987475E-019
  0.32770000000000005         -2.3345921183936573E-019
  0.32880000000000004         -2.8835118462610970E-019
  0.32990000000000003         -2.7974184918104519E-019
  0.33100000000000002         -1.9157534055075005E-019
  0.33210000000000001         -2.5852570728364079E-020
  0.33320000000000005          1.9274404484916618E-019
  0.33430000000000004          4.1745680009707542E-019
  0.33540000000000003          5.8655517699788075E-019
  0.33650000000000002          6.3670970443964985E-019
  0.33760000000000001          5.2059742038935597E-019
  0.33870000000000006          2.2496423078191573E-019
  0.33980000000000005         -2.1580815697736592E-019
  0.34090000000000004         -7.1574322141848496E-019
  0.34200000000000003         -1.1468448446768177E-018
  0.34310000000000002         -1.3635230057704018E-018
  0.34420000000000001         -1.2394254983354775E-018
  0.34530000000000005         -7.0998464571945967E-019
  0.34640000000000004          1.8972865654729941E-019
  0.34750000000000003          1.3042294878547959E-018
  0.34860000000000002          2.3653963160996522E-018
  0.34970000000000001          3.0357693115535219E-018
  0.35080000000000006          2.9863011139465916E-018
  0.35190000000000005          1.9970696418209504E-018
  0.35300000000000004          5.8879212580152860E-020
  0.35410000000000003         -2.5539623853809089E-018
  0.35520000000000002         -5.2708754730927055E-018
  0.35630000000000001         -7.2961304623588553E-018
  0.35740000000000005         -7.7709316610064168E-018
  0.35850000000000004         -6.0089635440046206E-018
  0.35960000000000003         -1.7603231553560551E-018
  0.36070000000000002          4.5646711303384171E-018
  0.36180000000000001          1.1791223000839529E-017
  0.36290000000000006          1.8065982804701407E-017
  0.36400000000000005          2.1171373185552957E-017
  0.36510000000000004          1.9052454507205290E-017
  0.36620000000000003          1.0473633043212223E-017
  0.36730000000000002         -4.3419326129834340E-018
  0.36840000000000006         -2.3279889124428035E-017
  0.36950000000000005         -4.2300788777409870E-017
  0.37060000000000004         -5.5944179279057593E-017
  0.37170000000000003         -5.8402544501837600E-017
  0.37280000000000002         -4.5046815222269313E-017
  0.37390000000000001         -1.4121947819144757E-017
  0.37500000000000006          3.1804570063211508E-017
  0.37610000000000005          8.5120019581519655E-017
  0.37720000000000004          1.3359810855710898E-016
  0.37830000000000003          1.6223097770579727E-016
  0.37940000000000002          1.5640431462941947E-016
  0.38050000000000006          1.0597906573408437E-016
  0.38160000000000005          9.4684194471419684E-018
  0.38270000000000004         -1.2277198641782918E-016
  0.38380000000000003         -2.6748835109376105E-016
  0.38490000000000002         -3.9053827118986262E-016
  0.38600000000000001         -4.5237478513097676E-016
  0.38710000000000000         -4.1663466495836641E-016
  0.38819999999999999         -2.6055135478131574E-016
  0.38930000000000009          1.4928726627918421E-017
  0.39040000000000008          3.7799394009359661E-016
  0.39150000000000007          7.6446929396352552E-016
  0.39260000000000006          1.0840209184501323E-015
  0.39370000000000005          1.2347749385024606E-015
  0.39480000000000004          1.1251775538269876E-015
  0.39590000000000003          6.9980528419998686E-016
  0.39700000000000002         -3.6065414428890786E-017
  0.39810000000000001         -9.9947269037285487E-016
  0.39920000000000000         -2.0266509872885002E-015
  0.40029999999999999         -2.8884701136536982E-015
  0.40140000000000009         -3.3259910914760065E-015
  0.40250000000000008         -3.1033517264340134E-015
  0.40360000000000007         -2.0703607643194811E-015
  0.40470000000000006         -2.2284328130460563E-016
  0.40580000000000005          2.2539091478126210E-015
  0.40690000000000004          4.9732587931939969E-015
  0.40800000000000003          7.3782624940047783E-015
  0.40910000000000002          8.8202247830457504E-015
  0.41020000000000001          8.6798731382592141E-015
  0.41130000000000000          6.5154381273673601E-015
  0.41239999999999999          2.2118814454436456E-015
  0.41350000000000009         -3.9013786517533023E-015
  0.41460000000000008         -1.0998395568533625E-014
  0.41570000000000007         -1.7798904208246609E-014
  0.41680000000000006         -2.2720431482764416E-014
  0.41790000000000005         -2.4136441845065309E-014
  0.41900000000000004         -2.0713225069225647E-014
  0.42010000000000003         -1.1774904702305569E-014
  0.42120000000000002          2.3725224801341542E-015
  0.42230000000000001          2.0235937954659592E-014
  0.42340000000000000          3.9121367219616233E-014
  0.42449999999999999          5.5363564692546422E-014
  0.42560000000000009          6.4814474492448509E-014
  0.42670000000000008          6.3558271960469717E-014
  0.42780000000000007          4.8767823507743264E-014
  0.42890000000000006          1.9568874691034302E-014
  0.43000000000000005         -2.2255995211158809E-014
  0.43110000000000004         -7.1901547271839784E-014
  0.43220000000000003         -1.2166864223119113E-013
  0.43330000000000002         -1.6168818536878130E-013
  0.43440000000000001         -1.8125269054858157E-013
  0.43550000000000000         -1.7065733154889826E-013
  0.43659999999999999         -1.2333281657793110E-013
  0.43770000000000009         -3.7945702501047348E-014
  0.43880000000000008          7.9932445784391486E-014
  0.43990000000000007          2.1700481094122220E-013
  0.44100000000000006          3.5264469434923852E-013
  0.44210000000000005          4.6074498109283302E-013
  0.44320000000000004          5.1305853127149094E-013
  0.44430000000000003          4.8380903917600149E-013
  0.44540000000000002          3.5507241043413571E-013
  0.44650000000000001          1.2216754401262062E-013
  0.44760000000000000         -2.0189675897895883E-013
  0.44869999999999999         -5.8394718462607601E-013
  0.44980000000000009         -9.7108554955503632E-013
  0.45090000000000008         -1.2947196761224156E-012
  0.45200000000000007         -1.4784141030821270E-012
  0.45310000000000006         -1.4491904860587148E-012
  0.45420000000000005         -1.1512283289544839E-012
  0.45530000000000004         -5.6024165259657900E-013
  0.45640000000000003          3.0374057067117423E-013
  0.45750000000000002          1.3677675046004202E-012
  0.45860000000000001          2.5040604275448732E-012
  0.45970000000000000          3.5368537454526529E-012
  0.46079999999999999          4.2590935448372671E-012
  0.46190000000000009          4.4587571882546063E-012
  0.46300000000000008          3.9529237919173317E-012
  0.46410000000000007          2.6259890350120375E-012
  0.46520000000000006          4.6687132213083233E-013
  0.46630000000000005         -2.4010787860071165E-012
  0.46740000000000004         -5.7041089693249431E-012
  0.46850000000000003         -9.0221060211663280E-012
  0.46960000000000002         -1.1817029943584607E-011
  0.47070000000000001         -1.3487369281024934E-011
  0.47180000000000000         -1.3446578607312020E-011
  0.47289999999999999         -1.1219298561892397E-011
  0.47400000000000009         -6.5449354453416096E-012
  0.47510000000000008          5.2542031824481234E-013
  0.47620000000000007          9.5550175173121018E-012
  0.47730000000000006          1.9687128664262656E-011
  0.47840000000000005          2.9665109900449583E-011