 -0.12000000000000000          0.0000000000000000     
 -0.11889999999999999          0.0000000000000000     
 -0.11780000000000000          0.0000000000000000     
 -0.11670000000000000          0.0000000000000000     
 -0.11559999999999999          0.0000000000000000     
 -0.11449999999999999          0.0000000000000000     
 -0.11340000000000000          0.0000000000000000     
 -0.11230000000000000          0.0000000000000000     
 -0.11119999999999999          0.0000000000000000     
 -0.11009999999999999          0.0000000000000000     
 -0.10900000000000000          0.0000000000000000     
 -0.10790000000000000          0.0000000000000000     
 -0.10679999999999999          0.0000000000000000     
 -0.10569999999999999          0.0000000000000000     
 -0.10460000000000000          0.0000000000000000     
 -0.10349999999999999          0.0000000000000000     
 -0.10239999999999999          0.0000000000000000     
 -0.10130000000000000          0.0000000000000000     
 -0.10020000000000000          0.0000000000000000     
  -9.9099999999999994E-002     0.0000000000000000     
  -9.7999999999999990E-002     0.0000000000000000     
  -9.6899999999999986E-002     0.0000000000000000     
  -9.5799999999999996E-002    -7.9808226968164583E-051
  -9.4699999999999993E-002    -2.0290003945292795E-047
  -9.3599999999999989E-002     1.2108365865161165E-046
  -9.2499999999999999E-002     1.0109922987674930E-045
  -9.1399999999999995E-002     1.7214558283225509E-045
  -9.0299999999999991E-002    -4.8012255494586879E-046
  -8.9200000000000002E-002    -3.8527074207520124E-044
  -8.8099999999999984E-002    -1.5897521488158171E-043
  -8.6999999999999994E-002    -2.2351399085897187E-043
  -8.5899999999999990E-002     6.3526295774882196E-043
  -8.4799999999999986E-002     4.3185146323402326E-042
  -8.3699999999999997E-002     1.0589017491263450E-041
  -8.2599999999999993E-002     4.8345400911851495E-042
  -8.1499999999999989E-002    -5.9619611692162481E-041
  -8.0399999999999999E-002    -2.3968634330026608E-040
  -7.9299999999999995E-002    -4.2946212869665963E-040
  -7.8199999999999992E-002     4.2558208733518122E-041
  -7.7100000000000002E-002     2.6806454219983743E-039
  -7.5999999999999984E-002     8.5037175772533966E-039
  -7.4899999999999994E-002     1.2807031656800670E-038
  -7.3799999999999991E-002    -3.7271230719506966E-039
  -7.2699999999999987E-002    -7.6144138579330969E-038
  -7.1599999999999997E-002    -2.1804224257519003E-037
  -7.0499999999999993E-002    -3.1109160507361875E-037
  -6.9399999999999989E-002     4.7425287470384675E-038
  -6.8300000000000000E-002     1.5125502445824810E-036
  -6.7199999999999996E-002     4.2888782566582972E-036
  -6.6099999999999992E-002     6.3262792649703149E-036
  -6.5000000000000002E-002     1.0879146453684149E-036
  -6.3899999999999985E-002    -2.1763008013517740E-035
  -6.2799999999999995E-002    -6.6399751110549220E-035
  -6.1699999999999991E-002    -1.0671503441569704E-034
  -6.0599999999999994E-002    -5.7120323662210192E-035
  -5.9499999999999990E-002     2.2216511112076374E-034
  -5.8399999999999994E-002     8.1397415598634090E-034
  -5.7299999999999990E-002     1.4730217266435390E-033
  -5.6199999999999986E-002     1.2826016722002128E-033
  -5.5099999999999996E-002    -1.3727982213635564E-033
  -5.3999999999999992E-002    -7.8172420866984700E-033
  -5.2899999999999989E-002    -1.6491291288897576E-032
  -5.1799999999999985E-002    -1.9375020270040637E-032
  -5.0699999999999995E-002    -6.2912376808389515E-034
  -4.9599999999999991E-002     5.6466789563880634E-032
  -4.8499999999999988E-002     1.4845307309655236E-031
  -4.7399999999999998E-002     2.1916566948078428E-031
  -4.6299999999999994E-002     1.3800104960903699E-031
  -4.5199999999999990E-002    -2.6475671067236959E-031
  -4.4099999999999986E-002    -1.0538329016205193E-030
  -4.2999999999999997E-002    -1.9338091125815727E-030
  -4.1899999999999993E-002    -2.0107234912703659E-030
  -4.0799999999999989E-002     1.2232072334418564E-031
  -3.9699999999999985E-002     5.5747461491689018E-030
  -3.8599999999999995E-002     1.3447966055826775E-029
  -3.7499999999999992E-002     1.8798957468102350E-029
  -3.6399999999999988E-002     1.2035965234155034E-029
  -3.5299999999999984E-002    -1.7564105037598409E-029
  -3.4199999999999994E-002    -7.2186696749089598E-029
  -3.3099999999999991E-002    -1.3130517182022490E-028
  -3.1999999999999987E-002    -1.4147556723222164E-028
  -3.0899999999999997E-002    -2.5636956163874755E-029
  -2.9799999999999993E-002     2.7205280425686950E-028
  -2.8699999999999989E-002     7.0451747833076348E-028
  -2.7599999999999986E-002     1.0359147093277687E-027
  -2.6499999999999996E-002     8.2813559578454675E-028
  -2.5399999999999992E-002    -4.0042073106983568E-028
  -2.4299999999999988E-002    -2.7862170540343781E-027
  -2.3199999999999985E-002    -5.5883027249148777E-027
  -2.2099999999999995E-002    -6.8262497918788428E-027
  -2.0999999999999991E-002    -3.6012069974469758E-027
  -1.9899999999999987E-002     6.4240929391307504E-027
  -1.8799999999999983E-002     2.2402358687055193E-026
  -1.7699999999999994E-002     3.7548636567828822E-026
  -1.6599999999999990E-002     3.8439898521433879E-026
  -1.5499999999999986E-002     9.0806927368467891E-027
  -1.4399999999999996E-002    -5.8740963719359458E-026
  -1.3299999999999992E-002    -1.5089984730424515E-025
  -1.2199999999999989E-002    -2.1971704928656687E-025
  -1.1099999999999985E-002    -1.8823540993719093E-025
  -9.9999999999999950E-003     1.8513345509904471E-026
  -8.8999999999999913E-003     4.1402966080333598E-025
  -7.7999999999999875E-003     8.8207471142298804E-025
  -6.6999999999999837E-003     1.1433782317630970E-024
  -5.5999999999999939E-003     8.1386299956835850E-025
  -4.4999999999999901E-003    -4.0759619690559056E-025
  -3.3999999999999864E-003    -2.4465905461176643E-024
  -2.2999999999999826E-003    -4.5782847483046939E-024
  -1.1999999999999927E-003    -5.3831426052016443E-024
  -9.9999999999988987E-005    -3.1576696993791298E-024
   1.0000000000000148E-003     3.1347254789695199E-024
   2.1000000000000185E-003     1.2598531736050397E-023
   3.2000000000000084E-003     2.1450267140884218E-023
   4.3000000000000121E-003     2.3270469129707961E-023
   5.4000000000000159E-003     1.1230652850902676E-023
   6.5000000000000058E-003    -1.7689751049397693E-023
   7.6000000000000234E-003    -5.7802555002992696E-023
   8.7000000000000133E-003    -9.1849661641294811E-023
   9.8000000000000032E-003    -9.3545134845162489E-023
   1.0900000000000021E-002    -3.7775451228022054E-023
   1.2000000000000011E-002     8.2637516842886734E-023
   1.3100000000000001E-002     2.3966718136523777E-022
   1.4200000000000018E-002     3.6284033550952830E-022
   1.5300000000000008E-002     3.5337854396690215E-022
   1.6400000000000026E-002     1.2532318408423659E-022
   1.7500000000000016E-002    -3.3374422826765371E-022
   1.8600000000000005E-002    -9.0656643677061200E-022
   1.9700000000000023E-002    -1.3314900228712971E-021
   2.0800000000000013E-002    -1.2642211278658804E-021
   2.1900000000000003E-002    -4.2718069563873058E-022
   2.3000000000000020E-002     1.1875268330735070E-021
   2.4100000000000010E-002     3.1475006334057167E-021
   2.5200000000000000E-002     4.5599706228482764E-021
   2.6300000000000018E-002     4.3025707341644004E-021
   2.7400000000000008E-002     1.5192282698017165E-021
   2.8500000000000025E-002    -3.7473968705499802E-021
   2.9600000000000015E-002    -1.0064696963309302E-020
   3.0700000000000005E-002    -1.4612273288608848E-020
   3.1800000000000023E-002    -1.3946930348694738E-020
   3.2900000000000013E-002    -5.5234809684730001E-021
   3.4000000000000002E-002     1.0453628042891656E-020
   3.5100000000000020E-002     2.9674421004998165E-020
   3.6200000000000010E-002     4.3847062119427649E-020
   3.7300000000000028E-002     4.2990130300677343E-020
   3.8400000000000017E-002     1.9772370153595690E-020
   3.9500000000000007E-002    -2.5362890333712396E-020
   4.0600000000000025E-002    -8.0575715279643085E-020
   4.1700000000000015E-002    -1.2310732950940132E-019
   4.2800000000000005E-002    -1.2555679225099467E-019
   4.3900000000000022E-002    -6.7463786295443646E-020
   4.5000000000000012E-002     5.1230368256317917E-020
   4.6100000000000002E-002     2.0076941915320259E-019
   4.7200000000000020E-002     3.2273662071979678E-019
   4.8300000000000010E-002     3.4586156637969796E-019
   4.9400000000000027E-002     2.1503846789275718E-019
   5.0500000000000017E-002    -7.5029863477966003E-020
   5.1600000000000007E-002    -4.5601852920350585E-019
   5.2700000000000025E-002    -7.8762734361589253E-019
   5.3800000000000014E-002    -8.9432344561485493E-019
   5.4900000000000004E-002    -6.3374969555105822E-019
   5.6000000000000022E-002     2.3179091992209179E-020
   5.7100000000000012E-002     9.3383247678676322E-019
   5.8200000000000002E-002     1.7829551642035896E-018
   5.9300000000000019E-002     2.1616255998375159E-018
   6.0400000000000009E-002     1.7192841237767341E-018
   6.1500000000000027E-002     3.4542945648890840E-019
   6.2600000000000017E-002    -1.6919485378421245E-018
   6.3700000000000007E-002    -3.7302350299263169E-018
   6.4800000000000024E-002    -4.8690607164750925E-018
   6.5900000000000014E-002    -4.2893781160087319E-018
   6.7000000000000004E-002    -1.6463586247352705E-018
   6.8100000000000022E-002     2.6156371710944823E-018
   6.9200000000000012E-002     7.1933119030467503E-018
   7.0300000000000029E-002     1.0212114680380888E-017
   7.1400000000000019E-002     9.8601185932950138E-018
   7.2500000000000009E-002     5.1989312526031762E-018
   7.3600000000000027E-002    -3.1497436706202745E-018
   7.4700000000000016E-002    -1.2782646698242663E-017
   7.5800000000000006E-002    -1.9999769413497044E-017
   7.6900000000000024E-002    -2.1000146608566353E-017
   7.8000000000000014E-002    -1.3483659238710211E-017
   7.9100000000000004E-002     1.9142525178023457E-018
   8.0200000000000021E-002     2.1024689739881160E-017
   8.1300000000000011E-002     3.6886842987132063E-017
   8.2400000000000029E-002     4.1898285935268055E-017
   8.3500000000000019E-002     3.0856414457294872E-017
   8.4600000000000009E-002     3.8441629827601270E-018
   8.5700000000000026E-002    -3.2314035757142142E-017
   8.6800000000000016E-002    -6.5043682955594902E-017
   8.7900000000000006E-002    -7.9715602646884379E-017
   8.9000000000000024E-002    -6.5224224447746577E-017
   9.0100000000000013E-002    -1.9608863024043943E-017
   9.1200000000000003E-002     4.6634547388741622E-017
   9.2300000000000021E-002     1.1155904478986043E-016
   9.3400000000000011E-002     1.4781852911579098E-016
   9.4500000000000028E-002     1.3257741511713887E-016
   9.5600000000000018E-002     5.8173578604830994E-017
   9.6700000000000008E-002    -6.0684377361723390E-017
   9.7800000000000026E-002    -1.8705245335275813E-016
   9.8900000000000016E-002    -2.7104884798527883E-016
  0.10000000000000001         -2.6684535049438050E-016
  0.10110000000000002         -1.5237199814048966E-016
  0.10220000000000001          5.5583590076253615E-017
  0.10330000000000003          2.9813454905960591E-016
  0.10440000000000002          4.8714398663602093E-016
  0.10550000000000001          5.3296087040284625E-016
  0.10660000000000003          3.7960286259378104E-016
  0.10770000000000002          3.5231819256454125E-017
  0.10880000000000001         -4.1520341805162016E-016
  0.10990000000000003         -8.2428911612107744E-016
  0.11100000000000002         -1.0240897425559897E-015
  0.11210000000000001         -8.8576480385723257E-016
  0.11320000000000002         -3.7787768458582264E-016
  0.11430000000000001          3.9921040275685337E-016
  0.11540000000000003          1.2211436430751002E-015
  0.11650000000000002          1.7956414558556035E-015
  0.11760000000000001          1.8558863304467593E-015
  0.11870000000000003          1.2640292808799151E-015
  0.11980000000000002          8.8434359214217470E-017
  0.12090000000000001         -1.3789853534846047E-015
  0.12200000000000003         -2.6831949319293735E-015
  0.12310000000000001         -3.3367485127837938E-015
  0.12420000000000003         -2.9862208898529489E-015
  0.12530000000000002         -1.5607202426218516E-015
  0.12640000000000001          6.5380601255150739E-016
  0.12750000000000003          3.0532747325860580E-015
  0.12860000000000002          4.8715882832944680E-015
  0.12970000000000001          5.4172234542284178E-015
  0.13080000000000003          4.3190991751366801E-015
  0.13190000000000002          1.6969519082232708E-015
  0.13300000000000001         -1.8135639795616989E-015
  0.13410000000000000         -5.2087320426641554E-015
  0.13520000000000004         -7.4077053818555680E-015
  0.13630000000000003         -7.6024249234524822E-015
  0.13740000000000002         -5.5516995139376394E-015
  0.13850000000000001         -1.7114688473986637E-015
  0.13960000000000000          2.8603593534733975E-015
  0.14070000000000005          6.8123260138756191E-015
  0.14180000000000004          8.9316106999841517E-015
  0.14290000000000003          8.5574720364880585E-015
  0.14400000000000002          5.8269135556495591E-015
  0.14510000000000001          1.6510321339659666E-015
  0.14620000000000000         -2.5896000928945236E-015
  0.14730000000000004         -5.5387089193130747E-015
  0.14840000000000003         -6.3754654734624173E-015
  0.14950000000000002         -5.1475383905020700E-015
  0.15060000000000001         -2.7785560714435439E-015
  0.15170000000000000         -7.1257507894358039E-016
  0.15280000000000005         -2.9628288865164998E-016
  0.15390000000000004         -2.1169849287781068E-015
  0.15500000000000003         -5.5637562514486020E-015
  0.15610000000000002         -8.8325254312632077E-015
  0.15720000000000001         -9.4574840496574972E-015
  0.15830000000000000         -5.2595837423894458E-015
  0.15940000000000004          4.5786304180978188E-015
  0.16050000000000003          1.8705824796477806E-014
  0.16160000000000002          3.3432348597567818E-014
  0.16270000000000001          4.3406537199649777E-014
  0.16380000000000000          4.3082345796023439E-014
  0.16490000000000005          2.8636302100472394E-014
  0.16600000000000004         -2.2591954387941481E-016
  0.16710000000000003         -3.9198847735292421E-014
  0.16820000000000002         -7.9540022297873263E-014
  0.16930000000000001         -1.0965850099167245E-013
  0.17040000000000000         -1.1791309962134754E-013
  0.17150000000000004         -9.6006872146738220E-014
  0.17260000000000003         -4.2096809829181548E-014
  0.17370000000000002          3.7307437016668039E-014
  0.17480000000000001          1.2737431707715372E-013
  0.17590000000000000          2.0720337049200419E-013
  0.17700000000000005          2.5404853155086885E-013
  0.17810000000000004          2.4872939328192543E-013
  0.17920000000000003          1.8106361866717577E-013
  0.18030000000000002          5.4015548094818897E-014
  0.18140000000000001         -1.1459422769165357E-013
  0.18250000000000000         -2.9355730259266043E-013
  0.18360000000000004         -4.4305379865212624E-013
  0.18470000000000003         -5.2217673011353909E-013
  0.18580000000000002         -4.9799650630967747E-013
  0.18690000000000001         -3.5446962492102231E-013
  0.18800000000000000         -9.9266711105432088E-014
  0.18910000000000005          2.3330105179099580E-013
  0.19020000000000004          5.8460611003261308E-013
  0.19130000000000003          8.7980105547810816E-013
  0.19240000000000002          1.0411034087237911E-012
  0.19350000000000001          1.0044502100621614E-012
  0.19460000000000005          7.3657370394209852E-013
  0.19570000000000004          2.4879690308409125E-013
  0.19680000000000003         -3.9624926831338913E-013
  0.19790000000000002         -1.0880255705800996E-012
  0.19900000000000001         -1.6829888606564715E-012
  0.20010000000000000         -2.0300229325228695E-012
  0.20120000000000005         -2.0027497731760054E-012
  0.20230000000000004         -1.5327009338164022E-012
  0.20340000000000003         -6.3590194318140810E-013
  0.20450000000000002          5.7449814428724388E-013
  0.20560000000000000          1.8950680805280327E-012
  0.20670000000000005          3.0604064151285678E-012
  0.20780000000000004          3.7903191990884622E-012
  0.20890000000000003          3.8484932204040885E-012
  0.21000000000000002          3.1014754047317280E-012
  0.21110000000000001          1.5649510105634029E-012
  0.21220000000000000         -5.7481805075537489E-013
  0.21330000000000005         -2.9728211812109160E-012
  0.21440000000000003         -5.1727641367516162E-012
  0.21550000000000002         -6.6851983638603955E-012
  0.21660000000000001         -7.0841835224421946E-012
  0.21770000000000000         -6.1049244530384440E-012
  0.21880000000000005         -3.7224114567009874E-012
  0.21990000000000004         -1.9250319532907776E-013
  0.22100000000000003          3.9578433927105427E-012
  0.22210000000000002          7.9960061078524754E-012
  0.22320000000000001          1.1099269419998155E-011
  0.22430000000000000          1.2504567704240099E-011
  0.22540000000000004          1.1667824143271798E-011
  0.22650000000000003          8.4032700437886107E-012
  0.22760000000000002          2.9730493807828728E-012
  0.22870000000000001         -3.8972098247634070E-012
  0.22980000000000000         -1.1090471029087602E-011
  0.23090000000000005         -1.7256894644483487E-011
  0.23200000000000004         -2.1041174322708055E-011
  0.23310000000000003         -2.1344934604551839E-011
  0.23420000000000002         -1.7578672494647006E-011
  0.23530000000000001         -9.8527122247817855E-012
  0.23640000000000000          9.3929275392368449E-013
  0.23750000000000004          1.3176956354487578E-011
  0.23860000000000003          2.4719998850007248E-011
  0.23970000000000002          3.3247369267663544E-011
  0.24080000000000001          3.6681685199517734E-011
  0.24190000000000000          3.3628044018265350E-011
  0.24300000000000005          2.3742724385126927E-011
  0.24410000000000004          7.9489675869879748E-012
  0.24520000000000003         -1.1564432132470907E-011
  0.24630000000000002         -3.1591824576246026E-011
  0.24740000000000001         -4.8391741467873702E-011
  0.24850000000000005         -5.8337216976063983E-011
  0.24960000000000004         -5.8630303460625705E-011
  0.25070000000000003         -4.7949424581627760E-011
  0.25180000000000002         -2.6894408909012410E-011
  0.25290000000000001          1.8832750769953959E-012
  0.25400000000000000          3.3929846235931124E-011
  0.25510000000000005          6.3616875076505736E-011
  0.25620000000000004          8.5072184407885401E-011
  0.25730000000000003          9.3270796775151377E-011
  0.25840000000000002          8.5094696019469799E-011
  0.25950000000000001          6.0153109023092296E-011
  0.26060000000000005          2.1176914814775062E-011
  0.26170000000000004         -2.6139135476574505E-011
  0.26280000000000003         -7.3880471420194363E-011
  0.26390000000000002         -1.1316750588165460E-010
  0.26500000000000001         -1.3573753382016274E-010
  0.26610000000000000         -1.3558492540975822E-010
  0.26720000000000005         -1.1034851339756808E-010
  0.26830000000000004         -6.2148483576390433E-011
  0.26940000000000003          2.3498482739967987E-012
  0.27050000000000002          7.2741154027505338E-011
  0.27160000000000001          1.3648811437836241E-010
  0.27270000000000005          1.8110053522242794E-010
  0.27380000000000004          1.9651605362257263E-010
  0.27490000000000003          1.7723579364341354E-010
  0.27600000000000002          1.2377404158751005E-010
  0.27710000000000001          4.3077018636243745E-011
  0.27820000000000000         -5.2258730291181947E-011
  0.27930000000000005         -1.4591220322718606E-010
  0.28040000000000004         -2.2061969776562590E-010
  0.28150000000000003         -2.6133297309349741E-010
  0.28260000000000002         -2.5816776947365540E-010
  0.28370000000000001         -2.0856324584684578E-010
  0.28480000000000005         -1.1819620077618813E-010
  0.28590000000000004         -4.1628743594206325E-013
  0.28700000000000003          1.2575440391950593E-010
  0.28810000000000002          2.3873733303209396E-010
  0.28920000000000001          3.1808941291134974E-010
  0.29030000000000000          3.4811440073081739E-010
  0.29140000000000005          3.2074775121416213E-010
  0.29250000000000004          2.3720128308295992E-010
  0.29360000000000003          1.0808057041353122E-010
  0.29470000000000002         -4.8041300128885322E-011
  0.29580000000000001         -2.0734830335206419E-010
  0.29690000000000005         -3.4435589918557045E-010
  0.29800000000000004         -4.3577457155274625E-010
  0.29910000000000003         -4.6408870667992123E-010
  0.30020000000000002         -4.2035334983312514E-010
  0.30130000000000001         -3.0584724434655380E-010
  0.30240000000000000         -1.3238737122089141E-010
  0.30350000000000005          7.8727638696083900E-011
  0.30460000000000004          2.9903094508151330E-010
  0.30570000000000003          4.9622660347049458E-010
  0.30680000000000002          6.3822739424732329E-010
  0.30790000000000001          6.9748912714432488E-010
  0.30900000000000005          6.5517959854493086E-010
  0.31010000000000004          5.0468387815141550E-010
  0.31120000000000003          2.5395063852847608E-010
  0.31230000000000002         -7.3761099987567786E-011
  0.31340000000000001         -4.4104881125582909E-010
  0.31450000000000006         -7.9956211860073870E-010
  0.31560000000000005         -1.0950869776347684E-009
  0.31670000000000004         -1.2740940562963228E-009
  0.31780000000000003         -1.2910659872717663E-009
  0.31890000000000002         -1.1157228681691372E-009
  0.32000000000000001         -7.3918591727182520E-010
  0.32110000000000005         -1.7817371971009092E-010
  0.32220000000000004          5.2348678814517506E-010
  0.32330000000000003          1.2964621052147529E-009
  0.32440000000000002          2.0507074874082666E-009
  0.32550000000000001          2.6831892126737775E-009
  0.32660000000000006          3.0879655024597653E-009
  0.32770000000000005          3.1678290399785951E-009
  0.32880000000000004          2.8465609013341042E-009
  0.32990000000000003          2.0807638549902877E-009
  0.33100000000000002          8.7020704316743202E-010
  0.33210000000000001         -7.3439400825219431E-010
  0.33320000000000005         -2.6271989257805730E-009
  0.33430000000000004         -4.6476215255172048E-009
  0.33540000000000003         -6.5860406953165720E-009
  0.33650000000000002         -8.1953152773161677E-009
  0.33760000000000001         -9.2081357496810754E-009
  0.33870000000000006         -9.3596537717201321E-009
  0.33980000000000005         -8.4142063700458525E-009
  0.34090000000000004         -6.1942962101456457E-009
  0.34200000000000003         -2.6095476126598219E-009
  0.34310000000000002          2.3169191712274704E-009
  0.34420000000000001          8.4270853561747576E-009
  0.34530000000000005          1.5413541112782375E-008
  0.34640000000000004          2.2813003098871395E-008
  0.34750000000000003          3.0007851368807412E-008
  0.34860000000000002          3.6234448687667446E-008
  0.34970000000000001          4.0595690389349039E-008
  0.35080000000000006          4.2074057077229564E-008
  0.35190000000000005          3.9540461308958404E-008
  0.35300000000000004          3.1753621320085329E-008
  0.35410000000000003          1.7344303759646742E-008
  0.35520000000000002         -5.2206712977846783E-009
  0.35630000000000001         -3.7699262410741493E-008
  0.35740000000000005         -8.2163065810136368E-008
  0.35850000000000004         -1.4111601803591006E-007
  0.35960000000000003         -2.1764388138769093E-007
  0.36070000000000002         -3.1559374761757063E-007
  0.36180000000000001         -4.3978340876510174E-007
  0.36290000000000006         -5.9623982685704461E-007
  0.36400000000000005         -7.9246905944288804E-007
  0.36510000000000004         -1.0377609450486427E-006
  0.36620000000000003         -1.3435367113444976E-006
  0.36730000000000002         -1.7237504931270746E-006
  0.36840000000000006         -2.1953573330238316E-006
  0.36950000000000005         -2.7788673080759443E-006
  0.37060000000000004         -3.4990004304094379E-006
  0.37170000000000003         -4.3854620899064690E-006
  0.37280000000000002         -5.4738540954361333E-006
  0.37390000000000001         -6.8067302588012329E-006
  0.37500000000000006         -8.4348094827077989E-006
  0.37610000000000005         -1.0418351268289491E-005
  0.37720000000000004         -1.2828703941145500E-005
  0.37830000000000003         -1.5750023961564134E-005
  0.37940000000000002         -1.9281176402336576E-005
  0.38050000000000006         -2.3537838286854126E-005
  0.38160000000000005         -2.8654784360421462E-005
  0.38270000000000004         -3.4788408501261971E-005
  0.38380000000000003         -4.2119459712071044E-005
  0.38490000000000002         -5.0855995829894179E-005
  0.38600000000000001         -6.1236592142674149E-005
  0.38710000000000000         -7.3533734533490241E-005
  0.38819999999999999         -8.8057416111351255E-005
  0.38930000000000009         -1.0515889214708722E-004
  0.39040000000000008         -1.2523454407303820E-004
  0.39150000000000007         -1.4872980426081713E-004
  0.39260000000000006         -1.7614304958264601E-004
  0.39370000000000005         -2.0802938835930076E-004
  0.39480000000000004         -2.4500419952244143E-004
  0.39590000000000003         -2.8774639510221160E-004
  0.39700000000000002         -3.3700109397082675E-004
  0.39810000000000001         -3.9358175794398768E-004
  0.39920000000000000         -4.5837149081824201E-004
  0.40029999999999999         -5.3232333710763284E-004
  0.40140000000000009         -6.1645964299747837E-004
  0.40250000000000008         -7.1186970625440518E-004
  0.40360000000000007         -8.1970621505171441E-004
  0.40470000000000006         -9.4117999757355447E-004
  0.40580000000000005         -1.0775524020557414E-003
  0.40690000000000004         -1.2301261221121301E-003
  0.40800000000000003         -1.4002332545007600E-003
  0.40910000000000002         -1.5892211935781692E-003
  0.41020000000000001         -1.7984353632623212E-003
  0.41130000000000000         -2.0292000780910606E-003
  0.41239999999999999         -2.2827957868670722E-003
  0.41350000000000009         -2.5604340998983360E-003
  0.41460000000000008         -2.8632293834644378E-003
  0.41570000000000007         -3.1921682276715088E-003
  0.41680000000000006         -3.5480768111768889E-003
  0.41790000000000005         -3.9315852780572366E-003
  0.41900000000000004         -4.3430915583340703E-003
  0.42010000000000003         -4.7827221952566621E-003
  0.42120000000000002         -5.2502949034490881E-003
  0.42230000000000001         -5.7452790859562064E-003
  0.42340000000000000         -6.2667583327882638E-003
  0.42449999999999999         -6.8133919049422707E-003
  0.42560000000000009         -7.3833842118011936E-003
  0.42670000000000008         -7.9744500879212789E-003
  0.42780000000000007         -8.5837923462351463E-003
  0.42890000000000006         -9.2080776134074813E-003
  0.43000000000000005         -9.8434238712590688E-003
  0.43110000000000004         -1.0485392775309223E-002
  0.43220000000000003         -1.1128988294018385E-002
  0.43330000000000002         -1.1768671014773333E-002
  0.43440000000000001         -1.2398375663457552E-002
  0.43550000000000000         -1.3011544775148102E-002
  0.43659999999999999         -1.3601170719468836E-002
  0.43770000000000009         -1.4159845714329988E-002
  0.43880000000000008         -1.4679832431349227E-002
  0.43990000000000007         -1.5153137341034031E-002
  0.44100000000000006         -1.5571601839792993E-002
  0.44210000000000005         -1.5926995721259905E-002
  0.44320000000000004         -1.6211128374294365E-002
  0.44430000000000003         -1.6415965408091919E-002
  0.44540000000000002         -1.6533742683116824E-002
  0.44650000000000001         -1.6557099786912735E-002
  0.44760000000000000         -1.6479209672928648E-002
  0.44869999999999999         -1.6293897771237551E-002
  0.44980000000000009         -1.5995782823863471E-002
  0.45090000000000008         -1.5580392928090617E-002
  0.45200000000000007         -1.5044283272915987E-002
  0.45310000000000006         -1.4385144179723695E-002
  0.45420000000000005         -1.3601895869731526E-002
  0.45530000000000004         -1.2694772833240383E-002
  0.45640000000000003         -1.1665386315024997E-002
  0.45750000000000002         -1.0516768782017022E-002
  0.45860000000000001         -9.2534018416832817E-003
  0.45970000000000000         -7.8812187158478313E-003
  0.46079999999999999         -6.4075837327281634E-003
  0.46190000000000009         -4.8412530138667795E-003
  0.46300000000000008         -3.1923051030183134E-003
  0.46410000000000007         -1.4720528914133023E-003
  0.46520000000000006          3.0706827946460876E-004
  0.46630000000000005          2.1316326158113720E-003
  0.46740000000000004          3.9873764836160959E-003
  0.46850000000000003          5.8593666521684048E-003
  0.46960000000000002          7.7321836594702840E-003
  0.47070000000000001          9.5901164989438091E-003
  0.47180000000000000          1.1417364454366301E-002
  0.47289999999999999          1.3198244463128790E-002
  0.47400000000000009          1.4917398997829616E-002
  0.47510000000000008          1.6560002592047585E-002
  0.47620000000000007          1.8111955808853296E-002
  0.47730000000000006          1.9560081685975717E-002
  0.47840000000000005          2.0892293044631943E-002