 -0.12000000000000000          0.0000000000000000     
 -0.11889999999999999          0.0000000000000000     
 -0.11780000000000000          0.0000000000000000     
 -0.11670000000000000          0.0000000000000000     
 -0.11559999999999999          0.0000000000000000     
 -0.11449999999999999          0.0000000000000000     
 -0.11340000000000000          0.0000000000000000     
 -0.11230000000000000          0.0000000000000000     
 -0.11119999999999999          0.0000000000000000     
 -0.11009999999999999          0.0000000000000000     
 -0.10900000000000000          0.0000000000000000     
 -0.10790000000000000          0.0000000000000000     
 -0.10679999999999999          0.0000000000000000     
 -0.10569999999999999          0.0000000000000000     
 -0.10460000000000000          0.0000000000000000     
 -0.10349999999999999          0.0000000000000000     
 -0.10239999999999999         -6.2267825775929543E-038
 -0.10130000000000000         -8.3152333460941362E-037
 -0.10020000000000000         -4.5628364206273866E-036
  -9.9099999999999994E-002    -1.0200073701892409E-035
  -9.7999999999999990E-002     1.7088909089155248E-035
  -9.6899999999999986E-002     1.8917047107432675E-034
  -9.5799999999999996E-002     5.5071718664740030E-034
  -9.4699999999999993E-002     3.5777239626898097E-034
  -9.3599999999999989E-002    -2.8062207689691294E-033
  -9.2499999999999999E-002    -1.0828276141108226E-032
  -9.1399999999999995E-002    -1.4932058011085897E-032
  -9.0299999999999991E-002     1.6459036327386562E-032
  -8.9200000000000002E-002     1.1700885882050961E-031
  -8.8099999999999984E-002     2.2362043575421596E-031
  -8.6999999999999994E-002     5.1372491912645588E-032
  -8.5899999999999990E-002    -7.8046617042568719E-031
  -8.4799999999999986E-002    -2.0244401673901579E-030
  -8.3699999999999997E-002    -1.7895053996719491E-030
  -8.2599999999999993E-002     3.0277803089103924E-030
  -8.1499999999999989E-002     1.2605021654898494E-029
  -8.0399999999999999E-002     1.7525076292839891E-029
  -7.9299999999999995E-002    -1.5733286345529695E-030
  -7.8199999999999992E-002    -5.5352256777880895E-029
  -7.7100000000000002E-002    -1.0983024591812454E-028
  -7.5999999999999984E-002    -7.0099545758525612E-029
  -7.4899999999999994E-002     1.5516784334159076E-028
  -7.3799999999999991E-002     4.9403431292395120E-028
  -7.2699999999999987E-002     5.8135800991850541E-028
  -7.1599999999999997E-002    -8.9158442891231247E-029
  -7.0499999999999993E-002    -1.5848639300208746E-027
  -6.9399999999999989E-002    -2.8487101683570648E-027
  -6.8300000000000000E-002    -1.7894388490209090E-027
  -6.7199999999999996E-002     3.0463036190636374E-027
  -6.6099999999999992E-002     9.7258138894251310E-027
  -6.5000000000000002E-002     1.1657397429109003E-026
  -6.3899999999999985E-002     1.0795905623900054E-027
  -6.2799999999999995E-002    -2.2286303605088309E-026
  -6.1699999999999991E-002    -4.3272604210681583E-026
  -6.0599999999999994E-002    -3.4594101929788377E-026
  -5.9499999999999990E-002     2.2055395929994086E-026
  -5.8399999999999994E-002     1.0642857046218068E-025
  -5.7299999999999990E-002     1.4914240319268440E-025
  -5.6199999999999986E-002     6.8340212150482714E-026
  -5.5099999999999996E-002    -1.4980084536593432E-025
  -5.3999999999999992E-002    -3.8280659166717911E-025
  -5.2899999999999989E-002    -4.0107580867529678E-025
  -5.1799999999999985E-002    -3.4359735721788266E-026
  -5.0699999999999995E-002     6.0742973783051883E-025
  -4.9599999999999991E-002     1.0603032670269092E-024
  -4.8499999999999988E-002     7.5944707938896014E-025
  -4.7399999999999998E-002    -4.3301771486740722E-025
  -4.6299999999999994E-002    -1.8122752651172842E-024
  -4.5199999999999990E-002    -2.0524029612256716E-024
  -4.4099999999999986E-002    -2.5314326664949082E-025
  -4.2999999999999997E-002     2.7696862356933180E-024
  -4.1899999999999993E-002     4.1998467975585423E-024
  -4.0799999999999989E-002     9.8332913504265198E-025
  -3.9699999999999985E-002    -6.7785255407538194E-024
  -3.8599999999999995E-002    -1.3266127830064699E-023
  -3.7499999999999992E-002    -8.6224469331899114E-024
  -3.6399999999999988E-002     1.3531039708740391E-023
  -3.5299999999999984E-002     4.5840751795553921E-023
  -3.4199999999999994E-002     6.2353103912501303E-023
  -3.3099999999999991E-002     2.8106698834202975E-023
  -3.1999999999999987E-002    -7.4385876937299210E-023
  -3.0899999999999997E-002    -2.1272809984509234E-022
  -2.9799999999999993E-002    -2.9045163738914799E-022
  -2.8699999999999989E-002    -1.7731097047663853E-022
  -2.7599999999999986E-002     2.0725167340819247E-022
  -2.6499999999999996E-002     7.8482947664446545E-022
  -2.5399999999999992E-002     1.2495255299033601E-021
  -2.4299999999999988E-002     1.1228526131555572E-021
  -2.3199999999999985E-002    -1.7740250354892575E-023
  -2.2099999999999995E-002    -2.1754410613961481E-021
  -2.0999999999999991E-002    -4.5957519606155484E-021
  -1.9899999999999987E-002    -5.7081433835603069E-021
  -1.8799999999999983E-002    -3.5933615054984999E-021
  -1.7699999999999994E-002     2.9523579711879040E-021
  -1.6599999999999990E-002     1.3024306885439793E-020
  -1.5499999999999986E-002     2.2560503567257163E-020
  -1.4399999999999996E-002     2.4577320598969659E-020
  -1.3299999999999992E-002     1.1501864926705520E-020
  -1.2199999999999989E-002    -2.0311063826782351E-020
  -1.1099999999999985E-002    -6.5100513225600072E-020
  -9.9999999999999950E-003    -1.0401045888664732E-019
  -8.8999999999999913E-003    -1.0690983948064466E-019
  -7.7999999999999875E-003    -4.2819673115952415E-020
  -6.6999999999999837E-003     1.0100367033383691E-019
  -5.5999999999999939E-003     2.9671597778339990E-019
  -4.4999999999999901E-003     4.6186981879219708E-019
  -3.3999999999999864E-003     4.6896686916392475E-019
  -2.2999999999999826E-003     1.9050285907280753E-019
  -1.1999999999999927E-003    -4.2196584081937212E-019
  -9.9999999999988987E-005    -1.2486785417579054E-018
   1.0000000000000148E-003    -1.9502684386449710E-018
   2.1000000000000185E-003    -2.0130284511588202E-018
   3.2000000000000084E-003    -9.3201412353274931E-019
   4.3000000000000121E-003     1.4823460652837273E-018
   5.4000000000000159E-003     4.7729274459669599E-018
   6.5000000000000058E-003     7.6594927082740067E-018
   7.6000000000000234E-003     8.2227408457940035E-018
   8.7000000000000133E-003     4.5755183798206613E-018
   9.8000000000000032E-003    -4.0538034103932587E-018
   1.0900000000000021E-002    -1.6181508940450933E-017
   1.2000000000000011E-002    -2.7473481884551067E-017
   1.3100000000000001E-002    -3.1347815420863689E-017
   1.4200000000000018E-002    -2.1148883969110991E-017
   1.5300000000000008E-002     6.3704819769095495E-018
   1.6400000000000026E-002     4.7365042728354338E-017
   1.7500000000000016E-002     8.8825470974406347E-017
   1.8600000000000005E-002     1.1006502655503787E-016
   1.9700000000000023E-002     8.8909004872722623E-017
   2.0800000000000013E-002     1.1943425696785667E-017
   2.1900000000000003E-002    -1.1417408693010013E-016
   2.3000000000000020E-002    -2.5535703958057884E-016
   2.4100000000000010E-002    -3.5223998344909106E-016
   2.5200000000000000E-002    -3.3549730401840038E-016
   2.6300000000000018E-002    -1.5346963814215898E-016
   2.7400000000000008E-002     1.9495932105463854E-016
   2.8500000000000025E-002     6.3500747021084053E-016
   2.9600000000000015E-002     1.0133050708192009E-015
   3.0700000000000005E-002     1.1295211866049527E-015
   3.1800000000000023E-002     8.0366770300736705E-016
   3.2900000000000013E-002    -3.4874630007270899E-017
   3.4000000000000002E-002    -1.2662068520504541E-015
   3.5100000000000020E-002    -2.5454494581059612E-015
   3.6200000000000010E-002    -3.3499302214217959E-015
   3.7300000000000028E-002    -3.1225176964503075E-015
   3.8400000000000017E-002    -1.4906884817154645E-015
   3.9500000000000007E-002     1.4992482753395371E-015
   4.0600000000000025E-002     5.2238620416413427E-015
   4.1700000000000015E-002     8.4958448014606299E-015
   4.2800000000000005E-002     9.8112291257669685E-015
   4.3900000000000022E-002     7.8219737406060721E-015
   4.5000000000000012E-002     1.9315026913554723E-015
   4.6100000000000002E-002    -7.1760567461340332E-015
   4.7200000000000020E-002    -1.7304969050201285E-014
   4.8300000000000010E-002    -2.5013930409004722E-014
   4.9400000000000027E-002    -2.6455423909083006E-014
   5.0500000000000017E-002    -1.8671873965477858E-014
   5.1600000000000007E-002    -1.0194691920111450E-015
   5.2700000000000025E-002     2.3767011857232948E-014
   5.3800000000000014E-002     4.9381336155604189E-014
   5.4900000000000004E-002     6.6982958540024167E-014
   5.6000000000000022E-002     6.7488930410024795E-014
   5.7100000000000012E-002     4.4702201460645559E-014
   5.8200000000000002E-002    -1.5669705086465713E-015
   5.9300000000000019E-002    -6.3480818151518220E-014
   6.0400000000000009E-002    -1.2528964613045499E-013
   6.1500000000000027E-002    -1.6618326669595559E-013
   6.2600000000000017E-002    -1.6571724218520427E-013
   6.3700000000000007E-002    -1.1073707970982614E-013
   6.4800000000000024E-002    -1.9223027295427384E-015
   6.5900000000000014E-002     1.4231908359965693E-013
   6.7000000000000004E-002     2.8661992285296755E-013
   6.8100000000000022E-002     3.8512097932830766E-013
   6.9200000000000012E-002     3.9309971981833890E-013
   7.0300000000000029E-002     2.8142693981589972E-013
   7.1400000000000019E-002     5.0012514986038324E-014
   7.2500000000000009E-002    -2.6425885258258098E-013
   7.3600000000000027E-002    -5.8899982742603452E-013
   7.4700000000000016E-002    -8.2912608828553440E-013
   7.5800000000000006E-002    -8.8987037216976159E-013
   7.6900000000000024E-002    -7.0545139371903403E-013
   7.8000000000000014E-002    -2.6602491014777382E-013
   7.9100000000000004E-002     3.6565816849286036E-013
   8.0200000000000021E-002     1.0553031232793643E-012
   8.1300000000000011E-002     1.6195660701159291E-012
   8.2400000000000029E-002     1.8681058091528858E-012
   8.3500000000000019E-002     1.6570311976965853E-012
   8.4600000000000009E-002     9.4045819805424682E-013
   8.5700000000000026E-002    -1.9533171579580554E-013
   8.6800000000000016E-002    -1.5286799728044929E-012
   8.7900000000000006E-002    -2.7374669024072526E-012
   8.9000000000000024E-002    -3.4695982903342446E-012
   9.0100000000000013E-002    -3.4356602478454918E-012
   9.1200000000000003E-002    -2.5013584842695682E-012
   9.2300000000000021E-002    -7.5322744959074094E-013
   9.3400000000000011E-002     1.4860850470573443E-012
   9.4500000000000028E-002     3.7064583426701266E-012
   9.5600000000000018E-002     5.3204203423051478E-012
   9.6700000000000008E-002     5.8141791581940488E-012
   9.7800000000000026E-002     4.9035107872019202E-012
   9.8900000000000016E-002     2.6505704157700888E-012
  0.10000000000000001         -4.9898304752149880E-013
  0.10110000000000002         -3.7834927998773217E-012
  0.10220000000000001         -6.2966378578610331E-012
  0.10330000000000003         -7.2315190065642066E-012
  0.10440000000000002         -6.1394069221032065E-012
  0.10550000000000001         -3.1298000432461304E-012
  0.10660000000000003          1.0586200956091240E-012
  0.10770000000000002          5.1627792565383125E-012
  0.10880000000000001          7.6806978520289902E-012
  0.10990000000000003          7.2916104550770526E-012
  0.11100000000000002          3.3169313216840018E-012
  0.11210000000000001         -3.9022335348590624E-012
  0.11320000000000002         -1.2837020079312885E-011
  0.11430000000000001         -2.0905751884058552E-011
  0.11540000000000003         -2.4941841249900265E-011
  0.11650000000000002         -2.1941572155527074E-011
  0.11760000000000001         -9.9550527222955056E-012
  0.11870000000000003          1.1079358149667278E-011
  0.11980000000000002          3.8780014987935386E-011
  0.12090000000000001          6.8241287622251063E-011
  0.12200000000000003          9.2543029792776667E-011
  0.12310000000000001          1.0384789220673308E-010
  0.12420000000000003          9.4950059421859031E-011
  0.12530000000000002          6.1017829779359589E-011
  0.12640000000000001          1.1931771648366588E-012
  0.12750000000000003         -8.0304263732388618E-011
  0.12860000000000002         -1.7386364643903493E-010
  0.12970000000000001         -2.6513084225867752E-010
  0.13080000000000003         -3.3661961950903443E-010
  0.13190000000000002         -3.7010743708062014E-010
  0.13300000000000001         -3.4948362866550963E-010
  0.13410000000000000         -2.6362416156044674E-010
  0.13520000000000004         -1.0885337612207543E-010
  0.13630000000000003          1.0937590743553751E-010
  0.13740000000000002          3.7582096386937842E-010
  0.13850000000000001          6.6588137422562660E-010
  0.13960000000000000          9.4705282410678269E-010
  0.14070000000000005          1.1812349632269993E-009
  0.14180000000000004          1.3277019542146938E-009
  0.14290000000000003          1.3465841731891918E-009
  0.14400000000000002          1.2027892003343200E-009
  0.14510000000000001          8.7035372926373850E-010
  0.14620000000000000          3.3722693738329520E-010
  0.14730000000000004         -3.8961625594961628E-010
  0.14840000000000003         -1.2790231156653753E-009
  0.14950000000000002         -2.2710413263313597E-009
  0.15060000000000001         -3.2736875582820166E-009
  0.15170000000000000         -4.1621894771167460E-009
  0.15280000000000005         -4.7818736308694247E-009
  0.15390000000000004         -4.9557583710629902E-009
  0.15500000000000003         -4.4975683184492681E-009
  0.15610000000000002         -3.2303663518350042E-009
  0.15720000000000001         -1.0103389895976131E-009
  0.15830000000000000          2.2453896377668596E-009
  0.15940000000000004          6.5286223547806338E-009
  0.16050000000000003          1.1709680307961265E-008
  0.16160000000000002          1.7508823969203277E-008
  0.16270000000000001          2.3471304902930365E-008
  0.16380000000000000          2.8947176244709834E-008
  0.16490000000000005          3.3076074845639408E-008
  0.16600000000000004          3.4775929320269941E-008
  0.16710000000000003          3.2733450250688457E-008
  0.16820000000000002          2.5393035865981047E-008
  0.16930000000000001          1.0939784404084985E-008
  0.17040000000000000         -1.2728303695708136E-008
  0.17150000000000004         -4.8044375140858615E-008
  0.17260000000000003         -9.7838451436266570E-008
  0.17370000000000002         -1.6543066831519645E-007
  0.17480000000000001         -2.5475754265313712E-007
  0.17590000000000000         -3.7053679668280920E-007
  0.17700000000000005         -5.1847651965267059E-007
  0.17810000000000004         -7.0553421067294710E-007
  0.17920000000000003         -9.4023254184813166E-007
  0.18030000000000002         -1.2330368343326761E-006
  0.18140000000000001         -1.5968011881896225E-006
  0.18250000000000000         -2.0472906887020433E-006
  0.18360000000000004         -2.6037835570312139E-006
  0.18470000000000003         -3.2897651599200249E-006
  0.18580000000000002         -4.1337213878320910E-006
  0.18690000000000001         -5.1700389328960108E-006
  0.18800000000000000         -6.4400308058623583E-006
  0.18910000000000005         -7.9930926146421563E-006
  0.19020000000000004         -9.8880108994136594E-006
  0.19130000000000003         -1.2194444082165957E-005
  0.19240000000000002         -1.4994581130826436E-005
  0.19350000000000001         -1.8385019380492607E-005
  0.19460000000000005         -2.2478849620718649E-005
  0.19570000000000004         -2.7408000201998417E-005
  0.19680000000000003         -3.3325808590712816E-005
  0.19790000000000002         -4.0409874970106465E-005
  0.19900000000000001         -4.8865127241609929E-005
  0.20010000000000000         -5.8927242631916932E-005
  0.20120000000000005         -7.0866214412664959E-005
  0.20230000000000004         -8.4990189112722685E-005
  0.20340000000000003         -1.0164949374370894E-004
  0.20450000000000002         -1.2124076594391306E-004
  0.20560000000000000         -1.4421133422073875E-004
  0.20670000000000005         -1.7106344012257730E-004
  0.20780000000000004         -2.0235864254481250E-004
  0.20890000000000003         -2.3872197475009786E-004
  0.21000000000000002         -2.8084563975699727E-004
  0.21110000000000001         -3.2949284018893310E-004
  0.21220000000000000         -3.8550066907292683E-004
  0.21330000000000005         -4.4978260332369517E-004
  0.21440000000000003         -5.2333004748765456E-004
  0.21550000000000002         -6.0721303411564174E-004
  0.21660000000000001         -7.0257918218735087E-004
  0.21770000000000000         -8.1065180854221583E-004
  0.21880000000000005         -9.3272642325501766E-004
  0.21990000000000004         -1.0701646745119129E-003
  0.22100000000000003         -1.2243862727249720E-003
  0.22210000000000002         -1.3968601117666851E-003
  0.22320000000000001         -1.5890900414567055E-003
  0.22430000000000000         -1.8026010397444612E-003
  0.22540000000000004         -2.0389207449994767E-003
  0.22650000000000003         -2.2995567033408130E-003
  0.22760000000000002         -2.5859743714013684E-003
  0.22870000000000001         -2.8995678548547153E-003
  0.22980000000000000         -3.2416315440777811E-003
  0.23090000000000005         -3.6133236443541281E-003
  0.23200000000000004         -4.0156354235439109E-003
  0.23310000000000003         -4.4493485672859696E-003
  0.23420000000000002         -4.9149991048772768E-003
  0.23530000000000001         -5.4128305333665267E-003
  0.23640000000000000         -5.9427554991713562E-003
  0.23750000000000004         -6.5043121900426864E-003
  0.23860000000000003         -7.0966245457974794E-003
  0.23970000000000002         -7.7183565447861910E-003
  0.24080000000000001         -8.3676743927971128E-003
  0.24190000000000000         -9.0422088087501688E-003
  0.24300000000000005         -9.7390392659480185E-003
  0.24410000000000004         -1.0454661964749014E-002
  0.24520000000000003         -1.1184966748318216E-002
  0.24630000000000002         -1.1925231852273866E-002
  0.24740000000000001         -1.2670114093675418E-002
  0.24850000000000005         -1.3413671145225946E-002
  0.24960000000000004         -1.4149376471461968E-002
  0.25070000000000003         -1.4870147412516195E-002
  0.25180000000000002         -1.5568397884731695E-002
  0.25290000000000001         -1.6236081526852700E-002
  0.25400000000000000         -1.6864755790373293E-002
  0.25510000000000005         -1.7445664132722485E-002
  0.25620000000000004         -1.7969871689134165E-002
  0.25730000000000003         -1.8428319058200460E-002
  0.25840000000000002         -1.8811926276054516E-002
  0.25950000000000001         -1.9111776593465805E-002
  0.26060000000000005         -1.9319173907961309E-002
  0.26170000000000004         -1.9425866772500609E-002
  0.26280000000000003         -1.9424097500406336E-002
  0.26390000000000002         -1.9306840823199809E-002
  0.26500000000000001         -1.9067822242177415E-002
  0.26610000000000000         -1.8701737023322878E-002
  0.26720000000000005         -1.8204379806166789E-002
  0.26830000000000004         -1.7572758959130689E-002
  0.26940000000000003         -1.6805177511062967E-002
  0.27050000000000002         -1.5901398033401768E-002
  0.27160000000000001         -1.4862568310558818E-002
  0.27270000000000005         -1.3691417895448598E-002
  0.27380000000000004         -1.2392214137726964E-002
  0.27490000000000003         -1.0970830018349644E-002
  0.27600000000000002         -9.4347584103127800E-003
  0.27710000000000001         -7.7929568616046732E-003
  0.27820000000000000         -6.0558481602850898E-003
  0.27930000000000005         -4.2352154421418011E-003
  0.28040000000000004         -2.3441248796509267E-003
  0.28150000000000003         -3.9670342024929813E-004
  0.28260000000000002          1.5919210498976247E-003
  0.28370000000000001          3.6057740638640130E-003
  0.28480000000000005          5.6283384230949793E-003
  0.28590000000000004          7.6427081559005145E-003
  0.28700000000000003          9.6318585217817325E-003
  0.28810000000000002          1.1578942048296058E-002
  0.28920000000000001          1.3467214955137079E-002
  0.29030000000000000          1.5280470959905181E-002
  0.29140000000000005          1.7003218972507880E-002
  0.29250000000000004          1.8620929397903444E-002
  0.29360000000000003          2.0120225558247662E-002
  0.29470000000000002          2.1489026391434258E-002
  0.29580000000000001          2.2716644185718293E-002
  0.29690000000000005          2.3794011700771004E-002
  0.29800000000000004          2.4713767544097019E-002
  0.29910000000000003          2.5470262332786531E-002
  0.30020000000000002          2.6059729499596944E-002
  0.30130000000000001          2.6480254365419877E-002
  0.30240000000000000          2.6731809896226370E-002
  0.30350000000000005          2.6816091596928899E-002
  0.30460000000000004          2.6736483537588188E-002
  0.30570000000000003          2.6498068880823178E-002
  0.30680000000000002          2.6107539161669940E-002
  0.30790000000000001          2.5573005117403270E-002
  0.30900000000000005          2.4903735338513956E-002
  0.31010000000000004          2.4110096960329310E-002
  0.31120000000000003          2.3203457881818493E-002
  0.31230000000000002          2.2195995443671766E-002
  0.31340000000000001          2.1100435950870182E-002
  0.31450000000000006          1.9929771537593458E-002
  0.31560000000000005          1.8697129994629146E-002
  0.31670000000000004          1.7415704394172844E-002
  0.31780000000000003          1.6098592340783539E-002
  0.31890000000000002          1.4758562172352437E-002
  0.32000000000000001          1.3407902797754268E-002
  0.32110000000000005          1.2058336524284211E-002
  0.32220000000000004          1.0720860605909634E-002
  0.32330000000000003          9.4056391762690466E-003
  0.32440000000000002          8.1218933462997266E-003
  0.32550000000000001          6.8779205427180450E-003
  0.32660000000000006          5.6811170526677186E-003
  0.32770000000000005          4.5378863584923500E-003
  0.32880000000000004          3.4535476170432498E-003
  0.32990000000000003          2.4323577829231651E-003
  0.33100000000000002          1.4776155939432247E-003
  0.33210000000000001          5.9175240283018790E-004
  0.33320000000000005         -2.2373368403600985E-004
  0.33430000000000004         -9.6823778488677281E-004
  0.33540000000000003         -1.6419590247521579E-003
  0.33650000000000002         -2.2457686733385199E-003
  0.33760000000000001         -2.7811929868888302E-003
  0.33870000000000006         -3.2503124549718102E-003
  0.33980000000000005         -3.6557080833539814E-003
  0.34090000000000004         -4.0003202622648660E-003
  0.34200000000000003         -4.2873546369328998E-003
  0.34310000000000002         -4.5203356767718273E-003
  0.34420000000000001         -4.7030582832744668E-003
  0.34530000000000005         -4.8394657984706137E-003
  0.34640000000000004         -4.9334492997411012E-003
  0.34750000000000003         -4.9888571434850626E-003
  0.34860000000000002         -5.0095116189718064E-003
  0.34970000000000001         -4.9992054488815158E-003
  0.35080000000000006         -4.9616365724473518E-003
  0.35190000000000005         -4.9002939290737494E-003
  0.35300000000000004         -4.8184545016032665E-003
  0.35410000000000003         -4.7192221916978480E-003
  0.35520000000000002         -4.6054981539945432E-003
  0.35630000000000001         -4.4799290483245671E-003
  0.35740000000000005         -4.3449158434887801E-003
  0.35850000000000004         -4.2026510749515857E-003
  0.35960000000000003         -4.0551388234026080E-003
  0.36070000000000002         -3.9041330698195145E-003
  0.36180000000000001         -3.7511105817927401E-003
  0.36290000000000006         -3.5973234660641173E-003
  0.36400000000000005         -3.4438556941522739E-003
  0.36510000000000004         -3.2916521033126440E-003
  0.36620000000000003         -3.1414508660150713E-003
  0.36730000000000002         -2.9938077038676766E-003
  0.36840000000000006         -2.8491350095053063E-003
  0.36950000000000005         -2.7077202374763470E-003
  0.37060000000000004         -2.5697120507654843E-003
  0.37170000000000003         -2.4351030568667653E-003
  0.37280000000000002         -2.3038331489319531E-003
  0.37390000000000001         -2.1758178807801684E-003
  0.37500000000000006         -2.0509182546177805E-003
  0.37610000000000005         -1.9288746488118694E-003
  0.37720000000000004         -1.8093205235757384E-003
  0.37830000000000003         -1.6918724297511974E-003
  0.37940000000000002         -1.5761884674265797E-003
  0.38050000000000006         -1.4619312610378037E-003
  0.38160000000000005         -1.3487280271938921E-003
  0.38270000000000004         -1.2361817664002129E-003
  0.38380000000000003         -1.1239112420945373E-003
  0.38490000000000002         -1.0115597635648188E-003
  0.38600000000000001         -8.9877585055171867E-004
  0.38710000000000000         -7.8522815624896668E-004
  0.38819999999999999         -6.7065301919134296E-004
  0.38930000000000009         -5.5485463269039923E-004
  0.39040000000000008         -4.3767529370355399E-004
  0.39150000000000007         -3.1895831191101339E-004
  0.39260000000000006         -1.9858376817698449E-004
  0.39370000000000005         -7.6509190473547181E-005
  0.39480000000000004          4.7217088741566781E-005
  0.39590000000000003          1.7249223630735750E-004
  0.39700000000000002          2.9917086005536240E-004
  0.39810000000000001          4.2702769971641455E-004
  0.39920000000000000          5.5577155673891022E-004
  0.40029999999999999          6.8506223020118186E-004
  0.40140000000000009          8.1451392866848662E-004
  0.40250000000000008          9.4367580152780305E-004
  0.40360000000000007          1.0720079659429689E-003
  0.40470000000000006          1.1989047658716755E-003
  0.40580000000000005          1.3237382207196074E-003
  0.40690000000000004          1.4458615595929003E-003
  0.40800000000000003          1.5645898826824052E-003
  0.40910000000000002          1.6791641978101269E-003
  0.41020000000000001          1.7887871774348238E-003
  0.41130000000000000          1.8926448352547557E-003
  0.41239999999999999          1.9899483464411983E-003
  0.41350000000000009          2.0799058424803346E-003
  0.41460000000000008          2.1617265341054293E-003
  0.41570000000000007          2.2346334296933432E-003
  0.41680000000000006          2.2978708561061721E-003
  0.41790000000000005          2.3507239615943010E-003
  0.41900000000000004          2.3925202351417997E-003
  0.42010000000000003          2.4226553857472489E-003
  0.42120000000000002          2.4406168690606239E-003
  0.42230000000000001          2.4459692855283190E-003
  0.42340000000000000          2.4383548358636502E-003
  0.42449999999999999          2.4174919243199096E-003
  0.42560000000000009          2.3832082633111085E-003
  0.42670000000000008          2.3354457796450618E-003
  0.42780000000000007          2.2742929441737455E-003
  0.42890000000000006          2.1999643194681633E-003
  0.43000000000000005          2.1127879056252723E-003
  0.43110000000000004          2.0131856377859679E-003
  0.43220000000000003          1.9016857440913889E-003
  0.43330000000000002          1.7789405526463732E-003
  0.43440000000000001          1.6457556250817457E-003
  0.43550000000000000          1.5030727343166843E-003
  0.43659999999999999          1.3519070310745460E-003
  0.43770000000000009          1.1933568015276097E-003
  0.43880000000000008          1.0285717306749314E-003
  0.43990000000000007          8.5878798285221082E-004
  0.44100000000000006          6.8531336957721020E-004
  0.44210000000000005          5.0949380871261767E-004
  0.44320000000000004          3.3270285548487081E-004
  0.44430000000000003          1.5631108216216695E-004
  0.44540000000000002         -1.8328567387714318E-005
  0.44650000000000001         -1.8988770547293671E-004
  0.44760000000000000         -3.5703996744662213E-004
  0.44869999999999999         -5.1849799349875866E-004
  0.44980000000000009         -6.7306570201770247E-004
  0.45090000000000008         -8.1967953679503997E-004
  0.45200000000000007         -9.5739369047809003E-004
  0.45310000000000006         -1.0853180349538946E-003
  0.45420000000000005         -1.2026223201352291E-003
  0.45530000000000004         -1.3085896212985647E-003
  0.45640000000000003         -1.4026947049829124E-003
  0.45750000000000002         -1.4845949577696558E-003
  0.45860000000000001         -1.5540665986738139E-003
  0.45970000000000000         -1.6109655866958518E-003
  0.46079999999999999         -1.6552663318676953E-003
  0.46190000000000009         -1.6870720924661200E-003
  0.46300000000000008         -1.7066291958528627E-003
  0.46410000000000007         -1.7143056498072303E-003
  0.46520000000000006         -1.7106039234117160E-003
  0.46630000000000005         -1.6961200771853540E-003
  0.46740000000000004         -1.6715091672191585E-003
  0.46850000000000003         -1.6374430100865311E-003
  0.46960000000000002         -1.5946613048418478E-003
  0.47070000000000001         -1.5440218678922308E-003
  0.47180000000000000         -1.4864614549504156E-003
  0.47289999999999999         -1.4229099878398921E-003
  0.47400000000000009         -1.3542204296820922E-003
  0.47510000000000008         -1.2812175552675913E-003
  0.47620000000000007         -1.2047609905618492E-003
  0.47730000000000006         -1.1257556051094504E-003
  0.47840000000000005         -1.0450850324994513E-003