 -0.12000000000000000          0.0000000000000000     
 -0.11889999999999999          0.0000000000000000     
 -0.11780000000000000          0.0000000000000000     
 -0.11670000000000000          0.0000000000000000     
 -0.11559999999999999          0.0000000000000000     
 -0.11449999999999999          0.0000000000000000     
 -0.11340000000000000          0.0000000000000000     
 -0.11230000000000000          0.0000000000000000     
 -0.11119999999999999          0.0000000000000000     
 -0.11009999999999999          0.0000000000000000     
 -0.10900000000000000          0.0000000000000000     
 -0.10790000000000000          0.0000000000000000     
 -0.10679999999999999          0.0000000000000000     
 -0.10569999999999999          0.0000000000000000     
 -0.10460000000000000          0.0000000000000000     
 -0.10349999999999999          0.0000000000000000     
 -0.10239999999999999          0.0000000000000000     
 -0.10130000000000000          0.0000000000000000     
 -0.10020000000000000          0.0000000000000000     
  -9.9099999999999994E-002     0.0000000000000000     
  -9.7999999999999990E-002     0.0000000000000000     
  -9.6899999999999986E-002     0.0000000000000000     
  -9.5799999999999996E-002     0.0000000000000000     
  -9.4699999999999993E-002     0.0000000000000000     
  -9.3599999999999989E-002     0.0000000000000000     
  -9.2499999999999999E-002     0.0000000000000000     
  -9.1399999999999995E-002     0.0000000000000000     
  -9.0299999999999991E-002     0.0000000000000000     
  -8.9200000000000002E-002     0.0000000000000000     
  -8.8099999999999984E-002     0.0000000000000000     
  -8.6999999999999994E-002     0.0000000000000000     
  -8.5899999999999990E-002     0.0000000000000000     
  -8.4799999999999986E-002     0.0000000000000000     
  -8.3699999999999997E-002     0.0000000000000000     
  -8.2599999999999993E-002     0.0000000000000000     
  -8.1499999999999989E-002     0.0000000000000000     
  -8.0399999999999999E-002     0.0000000000000000     
  -7.9299999999999995E-002     0.0000000000000000     
  -7.8199999999999992E-002     0.0000000000000000     
  -7.7100000000000002E-002     0.0000000000000000     
  -7.5999999999999984E-002     0.0000000000000000     
  -7.4899999999999994E-002     0.0000000000000000     
  -7.3799999999999991E-002     0.0000000000000000     
  -7.2699999999999987E-002     0.0000000000000000     
  -7.1599999999999997E-002     0.0000000000000000     
  -7.0499999999999993E-002     0.0000000000000000     
  -6.9399999999999989E-002     0.0000000000000000     
  -6.8300000000000000E-002     0.0000000000000000     
  -6.7199999999999996E-002     0.0000000000000000     
  -6.6099999999999992E-002     0.0000000000000000     
  -6.5000000000000002E-002     0.0000000000000000     
  -6.3899999999999985E-002     0.0000000000000000     
  -6.2799999999999995E-002     0.0000000000000000     
  -6.1699999999999991E-002     0.0000000000000000     
  -6.0599999999999994E-002     0.0000000000000000     
  -5.9499999999999990E-002     0.0000000000000000     
  -5.8399999999999994E-002     0.0000000000000000     
  -5.7299999999999990E-002     0.0000000000000000     
  -5.6199999999999986E-002     0.0000000000000000     
  -5.5099999999999996E-002     0.0000000000000000     
  -5.3999999999999992E-002     0.0000000000000000     
  -5.2899999999999989E-002     0.0000000000000000     
  -5.1799999999999985E-002     0.0000000000000000     
  -5.0699999999999995E-002     0.0000000000000000     
  -4.9599999999999991E-002     0.0000000000000000     
  -4.8499999999999988E-002     0.0000000000000000     
  -4.7399999999999998E-002     0.0000000000000000     
  -4.6299999999999994E-002     0.0000000000000000     
  -4.5199999999999990E-002     0.0000000000000000     
  -4.4099999999999986E-002     0.0000000000000000     
  -4.2999999999999997E-002     0.0000000000000000     
  -4.1899999999999993E-002     0.0000000000000000     
  -4.0799999999999989E-002     0.0000000000000000     
  -3.9699999999999985E-002     0.0000000000000000     
  -3.8599999999999995E-002     0.0000000000000000     
  -3.7499999999999992E-002     0.0000000000000000     
  -3.6399999999999988E-002     0.0000000000000000     
  -3.5299999999999984E-002     0.0000000000000000     
  -3.4199999999999994E-002     0.0000000000000000     
  -3.3099999999999991E-002     0.0000000000000000     
  -3.1999999999999987E-002     0.0000000000000000     
  -3.0899999999999997E-002     0.0000000000000000     
  -2.9799999999999993E-002     0.0000000000000000     
  -2.8699999999999989E-002     0.0000000000000000     
  -2.7599999999999986E-002     0.0000000000000000     
  -2.6499999999999996E-002     0.0000000000000000     
  -2.5399999999999992E-002     0.0000000000000000     
  -2.4299999999999988E-002     0.0000000000000000     
  -2.3199999999999985E-002     0.0000000000000000     
  -2.2099999999999995E-002     0.0000000000000000     
  -2.0999999999999991E-002     0.0000000000000000     
  -1.9899999999999987E-002     0.0000000000000000     
  -1.8799999999999983E-002     0.0000000000000000     
  -1.7699999999999994E-002     0.0000000000000000     
  -1.6599999999999990E-002     0.0000000000000000     
  -1.5499999999999986E-002     0.0000000000000000     
  -1.4399999999999996E-002     0.0000000000000000     
  -1.3299999999999992E-002     0.0000000000000000     
  -1.2199999999999989E-002     0.0000000000000000     
  -1.1099999999999985E-002     0.0000000000000000     
  -9.9999999999999950E-003     0.0000000000000000     
  -8.8999999999999913E-003     0.0000000000000000     
  -7.7999999999999875E-003     0.0000000000000000     
  -6.6999999999999837E-003     0.0000000000000000     
  -5.5999999999999939E-003     0.0000000000000000     
  -4.4999999999999901E-003     0.0000000000000000     
  -3.3999999999999864E-003     0.0000000000000000     
  -2.2999999999999826E-003     0.0000000000000000     
  -1.1999999999999927E-003     0.0000000000000000     
  -9.9999999999988987E-005     0.0000000000000000     
   1.0000000000000148E-003     0.0000000000000000     
   2.1000000000000185E-003     0.0000000000000000     
   3.2000000000000084E-003     0.0000000000000000     
   4.3000000000000121E-003     0.0000000000000000     
   5.4000000000000159E-003     0.0000000000000000     
   6.5000000000000058E-003     0.0000000000000000     
   7.6000000000000234E-003     0.0000000000000000     
   8.7000000000000133E-003     0.0000000000000000     
   9.8000000000000032E-003     0.0000000000000000     
   1.0900000000000021E-002     0.0000000000000000     
   1.2000000000000011E-002     0.0000000000000000     
   1.3100000000000001E-002     0.0000000000000000     
   1.4200000000000018E-002     0.0000000000000000     
   1.5300000000000008E-002     0.0000000000000000     
   1.6400000000000026E-002     0.0000000000000000     
   1.7500000000000016E-002     0.0000000000000000     
   1.8600000000000005E-002     0.0000000000000000     
   1.9700000000000023E-002     0.0000000000000000     
   2.0800000000000013E-002     0.0000000000000000     
   2.1900000000000003E-002     0.0000000000000000     
   2.3000000000000020E-002     0.0000000000000000     
   2.4100000000000010E-002     0.0000000000000000     
   2.5200000000000000E-002     0.0000000000000000     
   2.6300000000000018E-002     0.0000000000000000     
   2.7400000000000008E-002     0.0000000000000000     
   2.8500000000000025E-002     0.0000000000000000     
   2.9600000000000015E-002     0.0000000000000000     
   3.0700000000000005E-002     0.0000000000000000     
   3.1800000000000023E-002     0.0000000000000000     
   3.2900000000000013E-002     0.0000000000000000     
   3.4000000000000002E-002     0.0000000000000000     
   3.5100000000000020E-002     0.0000000000000000     
   3.6200000000000010E-002     0.0000000000000000     
   3.7300000000000028E-002     0.0000000000000000     
   3.8400000000000017E-002     0.0000000000000000     
   3.9500000000000007E-002     0.0000000000000000     
   4.0600000000000025E-002     0.0000000000000000     
   4.1700000000000015E-002     0.0000000000000000     
   4.2800000000000005E-002     0.0000000000000000     
   4.3900000000000022E-002     0.0000000000000000     
   4.5000000000000012E-002     0.0000000000000000     
   4.6100000000000002E-002     0.0000000000000000     
   4.7200000000000020E-002     0.0000000000000000     
   4.8300000000000010E-002     0.0000000000000000     
   4.9400000000000027E-002     0.0000000000000000     
   5.0500000000000017E-002     0.0000000000000000     
   5.1600000000000007E-002     0.0000000000000000     
   5.2700000000000025E-002     0.0000000000000000     
   5.3800000000000014E-002     0.0000000000000000     
   5.4900000000000004E-002     0.0000000000000000     
   5.6000000000000022E-002     0.0000000000000000     
   5.7100000000000012E-002     0.0000000000000000     
   5.8200000000000002E-002     0.0000000000000000     
   5.9300000000000019E-002     0.0000000000000000     
   6.0400000000000009E-002     0.0000000000000000     
   6.1500000000000027E-002     0.0000000000000000     
   6.2600000000000017E-002     0.0000000000000000     
   6.3700000000000007E-002     0.0000000000000000     
   6.4800000000000024E-002     0.0000000000000000     
   6.5900000000000014E-002     1.4012984643248171E-045
   6.7000000000000004E-002     5.6051938572992683E-045
   6.8100000000000022E-002     8.4077907859489024E-045
   6.9200000000000012E-002     7.0064923216240854E-045
   7.0300000000000029E-002     0.0000000000000000     
   7.1400000000000019E-002    -1.2611686178923354E-044
   7.2500000000000009E-002    -1.9618178500547439E-044
   7.3600000000000027E-002    -9.8090892502737195E-045
   7.4700000000000016E-002     1.6815581571897805E-044
   7.5800000000000006E-002     4.2038953929744512E-044
   7.6900000000000024E-002     4.7644147787043780E-044
   7.8000000000000014E-002     1.6815581571897805E-044
   7.9100000000000004E-002    -4.2038953929744512E-044
   8.0200000000000021E-002    -9.9492190967062012E-044
   8.1300000000000011E-002    -1.2051166793193427E-043
   8.2400000000000029E-002    -8.5479206323813841E-044
   8.3500000000000019E-002     1.5414283107572988E-044
   8.4600000000000009E-002     1.9478048654114957E-043
   8.5700000000000026E-002     4.4421161319096701E-043
   8.6800000000000016E-002     6.4880118898239030E-043
   8.7900000000000006E-002     5.0306614869260933E-043
   8.9000000000000024E-002    -3.8255448076067506E-043
   9.0100000000000013E-002    -2.0486983548428826E-042
   9.1200000000000003E-002    -3.6223565302796521E-042
   9.2300000000000021E-002    -3.1991643940535574E-042
   9.3400000000000011E-002     1.1196374729955288E-042
   9.4500000000000028E-002     9.0467828856810190E-042
   9.5600000000000018E-002     1.6158372592129466E-041
   9.6700000000000008E-002     1.4481018330332660E-041
   9.7800000000000026E-002    -2.7815774516847619E-042
   9.8900000000000016E-002    -3.3732056633226997E-041
  0.10000000000000001         -6.2415234899491677E-041
  0.10110000000000002         -6.1767835008973612E-041
  0.10220000000000001         -7.5726169012113115E-042
  0.10330000000000003          1.0078278685270517E-040
  0.10440000000000002          2.2301524929883031E-040
  0.10550000000000001          2.7583299101616132E-040
  0.10660000000000003          1.5512654259768590E-040
  0.10770000000000002         -2.1119109285685751E-040
  0.10880000000000001         -7.7814103723957092E-040
  0.10990000000000003         -1.2856997488088056E-039
  0.11100000000000002         -1.2190792172178752E-039
  0.11210000000000001          3.6760262614632926E-041
  0.11320000000000002          2.7172578521722528E-039
  0.11430000000000001          5.9361343117234674E-039
  0.11540000000000003          7.1600199826739766E-039
  0.11650000000000002          2.7927135705807512E-039
  0.11760000000000001         -9.3492671721901740E-039
  0.11870000000000003         -2.6059277720382676E-038
  0.11980000000000002         -3.5794846445427129E-038
  0.12090000000000001         -2.1105719878859127E-038
  0.12200000000000003          3.0121726046368180E-038
  0.12310000000000001          1.0669937164955284E-037
  0.12420000000000003          1.6069074006711288E-037
  0.12530000000000002          1.1664239140185287E-037
  0.12640000000000001         -8.2859310688942877E-038
  0.12750000000000003         -4.0406098180942034E-037
  0.12860000000000002         -6.6519185201835397E-037
  0.12970000000000001         -5.6531689357316470E-037
  0.13080000000000003          1.4847971314510928E-037
  0.13190000000000002          1.4039076148030636E-036
  0.13300000000000001          2.5708733717013897E-036
  0.13410000000000000          2.5235718133629040E-036
  0.13520000000000004          2.0028232062372024E-037
  0.13630000000000003         -4.4031246097762621E-036
  0.13740000000000002         -9.3043857571930668E-036
  0.13850000000000001         -1.0531145838815925E-035
  0.13960000000000000         -3.8231475782978609E-036
  0.14070000000000005          1.1987151712652797E-035
  0.14180000000000004          3.1380630995510857E-035
  0.14290000000000003          4.1176376117713932E-035
  0.14400000000000002          2.5118222149675435E-035
  0.14510000000000001         -2.5254018149900554E-035
  0.14620000000000000         -9.7284429048718403E-035
  0.14730000000000004         -1.5029326644299032E-034
  0.14840000000000003         -1.2575809350912570E-034
  0.14950000000000002          2.0056129067358252E-035
  0.15060000000000001          2.6935197198682758E-034
  0.15170000000000000          5.0792817025443338E-034
  0.15280000000000005          5.3892324713848044E-034
  0.15390000000000004          1.7212002692416347E-034
  0.15500000000000003         -6.2248477835236935E-034
  0.15610000000000002         -1.5665916069164323E-033
  0.15720000000000001         -2.0494457479838570E-033
  0.15830000000000000         -1.3403734129014448E-033
  0.15940000000000004          9.4535827087020785E-034
  0.16050000000000003          4.2908658865043173E-033
  0.16160000000000002          6.9850702859141990E-033
  0.16270000000000001          6.5088363820938115E-033
  0.16380000000000000          8.1250169528836513E-034
  0.16490000000000005         -9.8112393545672370E-033
  0.16600000000000004         -2.1211047652307467E-032
  0.16710000000000003         -2.5592671988270835E-032
  0.16820000000000002         -1.4557639424057931E-032
  0.16930000000000001          1.5226044613718684E-032
  0.17040000000000000          5.5956146574071465E-032
  0.17150000000000004          8.6323344538228325E-032
  0.17260000000000003          7.7131977884996235E-032
  0.17370000000000002          6.4927864761012717E-033
  0.17480000000000001         -1.1953652599768927E-031
  0.17590000000000000         -2.5165582564522450E-031
  0.17700000000000005         -3.0176124883913749E-031
  0.17810000000000004         -1.7747076507796571E-031
  0.17920000000000003          1.5682797931283657E-031
  0.18030000000000002          6.1665784771255549E-031
  0.18140000000000001          9.7377491228332775E-031
  0.18250000000000000          9.1465930138047491E-031
  0.18360000000000004          1.9582080788653352E-031
  0.18470000000000003         -1.1452600718818499E-030
  0.18580000000000002         -2.6288255371393928E-030
  0.18690000000000001         -3.3611780779276756E-030
  0.18800000000000000         -2.3564125266188171E-030
  0.18910000000000005          8.7256936257583595E-031
  0.19020000000000004          5.6703530349202808E-030
  0.19130000000000003          9.9303633702098639E-030
  0.19240000000000002          1.0534067928453194E-029
  0.19350000000000001          4.7236964011522310E-030
  0.19460000000000005         -7.8927242228334767E-030
  0.19570000000000004         -2.3597026318632658E-029
  0.19680000000000003         -3.4352102231368133E-029
  0.19790000000000002         -3.0206002376808825E-029
  0.19900000000000001         -4.3877675752352564E-030
  0.20010000000000000          4.0473324494066080E-029
  0.20120000000000005          8.8219712774522889E-029
  0.20230000000000004          1.1096022688937240E-028
  0.20340000000000003          7.9219974552085013E-029
  0.20450000000000002         -2.0846163403019145E-029
  0.20560000000000000         -1.6957089732894251E-028
  0.20670000000000005         -3.0576456205317925E-028
  0.20780000000000004         -3.3923419114696700E-028
  0.20890000000000003         -1.8820123620122661E-028
  0.21000000000000002          1.6652703727421140E-028
  0.21110000000000001          6.3349724401701151E-028
  0.21220000000000000          1.0008689105396115E-027
  0.21330000000000005          9.9260147106734037E-028
  0.21440000000000003          3.9464163082890796E-028
  0.21550000000000002         -7.8381410209824227E-028
  0.21660000000000001         -2.1889016190047189E-027
  0.21770000000000000         -3.1335588937399862E-027
  0.21880000000000005         -2.8087646753146784E-027
  0.21990000000000004         -6.8233425332305389E-028
  0.22100000000000003          3.0416531316078384E-027
  0.22210000000000002          7.1330628831671167E-027
  0.22320000000000001          9.4726271128263324E-027
  0.22430000000000000          7.7673964141142297E-027
  0.22540000000000004          7.4976130141729407E-028
  0.22650000000000003         -1.0557494976407907E-026
  0.22760000000000002         -2.2183950405428728E-026
  0.22870000000000001         -2.7848336861233049E-026
  0.22980000000000000         -2.1212435845025986E-026
  0.23090000000000005          6.5336499287856441E-028
  0.23200000000000004          3.3874164900816455E-026
  0.23310000000000003          6.6341556614542608E-026
  0.23420000000000002          8.0036718108075891E-026
  0.23530000000000001          5.7749869117578442E-026
  0.23640000000000000         -7.2189254623197662E-027
  0.23750000000000004         -1.0210746851434936E-025
  0.23860000000000003         -1.9166561448892642E-025
  0.23970000000000002         -2.2561577196311653E-025
  0.24080000000000001         -1.5780610206312686E-025
  0.24190000000000000          2.7356821050497960E-026
  0.24300000000000005          2.9159639389864142E-025
  0.24410000000000004          5.3634514895318179E-025
  0.24520000000000003          6.2472064451941283E-025
  0.24630000000000002          4.3404921663819447E-025
  0.24740000000000001         -7.3790184659841529E-026
  0.24850000000000005         -7.9215563209547394E-025
  0.24960000000000004         -1.4553649480920397E-024
  0.25070000000000003         -1.6991752298403032E-024
  0.25180000000000002         -1.1998709460841609E-024
  0.25290000000000001          1.4253570243840784E-025
  0.25400000000000000          2.0496661300299987E-024
  0.25510000000000005          3.8299047064908131E-024
  0.25620000000000004          4.5352319471666141E-024
  0.25730000000000003          3.3176271121102455E-024
  0.25840000000000002         -1.0351120951733522E-025
  0.25950000000000001         -5.0460884086264261E-024
  0.26060000000000005         -9.7701748397943083E-024
  0.26170000000000004         -1.1862249737658536E-023
  0.26280000000000003         -9.1196667267136732E-024
  0.26390000000000002         -7.1942127612751251E-025
  0.26500000000000001          1.1776724593758095E-023
  0.26610000000000000          2.4140379055940537E-023
  0.26720000000000005          3.0363944128666097E-023
  0.26830000000000004          2.4785785605547108E-023
  0.26940000000000003          4.9534394563213866E-024
  0.27050000000000002         -2.5837999835367103E-023
  0.27160000000000001         -5.7680827813938272E-023
  0.27270000000000005         -7.5969854771229111E-023
  0.27380000000000004         -6.6337774766059172E-023
  0.27490000000000003         -2.1519256169711648E-023
  0.27600000000000002          5.2299575283649690E-023
  0.27710000000000001          1.3283223624055696E-022
  0.27820000000000000          1.8547431284114827E-022
  0.27930000000000005          1.7433743963850218E-022
  0.28040000000000004          7.8313226043616924E-023
  0.28150000000000003         -9.3255475900627790E-023
  0.28260000000000002         -2.9265734890450649E-022
  0.28370000000000001         -4.4031509620987609E-022
  0.28480000000000005         -4.4835804432047089E-022
  0.28590000000000004         -2.5716312676482606E-022
  0.28700000000000003          1.2667987848630208E-022
  0.28810000000000002          6.0754452043910244E-022
  0.28920000000000001          1.0090831020548545E-021
  0.29030000000000000          1.1217264818428588E-021
  0.29140000000000005          7.8293664817522339E-022
  0.29250000000000004         -3.3137544361543345E-023
  0.29360000000000003         -1.1526749719022936E-021
  0.29470000000000002         -2.2033532832289355E-021
  0.29580000000000001         -2.7026098953317144E-021
  0.29690000000000005         -2.2261698164241177E-021
  0.29800000000000004         -6.1269006448635461E-022
  0.29910000000000003          1.8709018017843444E-021
  0.30020000000000002          4.4884298299354793E-021
  0.30130000000000001          6.1792742436990981E-021
  0.30240000000000000          5.8923249660870260E-021
  0.30350000000000005          3.0331307501513038E-021
  0.30460000000000004         -2.1256716129151513E-021
  0.30570000000000003         -8.2559798339666645E-021
  0.30680000000000002         -1.3162406484086350E-020
  0.30790000000000001         -1.4395579296625194E-020
  0.30900000000000005         -1.0177940449582160E-020
  0.31010000000000004         -3.6238525656619658E-022
  0.31120000000000003          1.2961175413037219E-020
  0.31230000000000002          2.5576248441142021E-020
  0.31340000000000001          3.2155269832760874E-020
  0.31450000000000006          2.8057749889122757E-020
  0.31560000000000005          1.1429853265080592E-020
  0.31670000000000004         -1.5150968063709435E-020
  0.31780000000000003         -4.4296151881196850E-020
  0.31890000000000002         -6.5242203529197881E-020
  0.32000000000000001         -6.7092503161902434E-020
  0.32110000000000005         -4.3124082189648959E-020
  0.32220000000000004          5.2365827861437985E-021
  0.32330000000000003          6.6459393338221125E-020
  0.32440000000000002          1.2037558788875006E-019
  0.32550000000000001          1.4352010142798378E-019
  0.32660000000000006          1.1740595779089641E-019
  0.32770000000000005          3.7338645276133836E-020
  0.32880000000000004         -8.1550702615837307E-020
  0.32990000000000003         -2.0426638445749989E-019
  0.33100000000000002         -2.8370956011952279E-019
  0.33210000000000001         -2.7551724088098003E-019
  0.33320000000000005         -1.5627115519397406E-019
  0.33430000000000004          6.1036041813154019E-020
  0.33540000000000003          3.2110929074518911E-019
  0.33650000000000002          5.3514144706267246E-019
  0.33760000000000001          6.0519470105554068E-019
  0.33870000000000006          4.5933551380101593E-019
  0.33980000000000005          8.7163342791859809E-020
  0.34090000000000004         -4.3774139522364802E-019
  0.34200000000000003         -9.6077844988889061E-019
  0.34310000000000002         -1.2808764606364454E-018
  0.34420000000000001         -1.2126211354037494E-018
  0.34530000000000005         -6.6047404401911726E-019
  0.34640000000000004          3.1920708552904685E-019
  0.34750000000000003          1.4947550715527236E-018
  0.34860000000000002          2.4936755432694702E-018
  0.34970000000000001          2.8981834064201518E-018
  0.35080000000000006          2.3834493839485634E-018
  0.35190000000000005          8.5986867071080366E-019
  0.35300000000000004         -1.4307595196795226E-018
  0.35410000000000003         -3.9113818426901763E-018
  0.35520000000000002         -5.7828845960363019E-018
  0.35630000000000001         -6.2433983769211113E-018
  0.35740000000000005         -4.7625076796153891E-018
  0.35850000000000004         -1.3276845435492898E-018
  0.35960000000000003          3.4290861215301612E-018
  0.36070000000000002          8.2953543032084363E-018
  0.36180000000000001          1.1752783148042268E-017
  0.36290000000000006          1.2412908018445311E-017
  0.36400000000000005          9.4980228014819477E-018
  0.36510000000000004          3.2112919477867866E-018
  0.36620000000000003         -5.1527702518469887E-018
  0.36730000000000002         -1.3444928329168520E-017
  0.36840000000000006         -1.9227239275450017E-017
  0.36950000000000005         -2.0530283659515000E-017
  0.37060000000000004         -1.6568050475077820E-017
  0.37170000000000003         -8.1465825613183241E-018
  0.37280000000000002          2.4376237170113457E-018
  0.37390000000000001          1.2065384627693407E-017
  0.37500000000000006          1.7883088978024823E-017
  0.37610000000000005          1.8472842284995530E-017
  0.37720000000000004          1.4655256519914273E-017
  0.37830000000000003          9.5085271680807586E-018
  0.37940000000000002          7.3878114397846569E-018
  0.38050000000000006          1.2065704746590465E-017
  0.38160000000000005          2.4499488322154777E-017
  0.38270000000000004          4.1035305223122631E-017
  0.38380000000000003          5.2949846021491481E-017
  0.38490000000000002          4.8013099776877003E-017
  0.38600000000000001          1.4220812990395297E-017
  0.38710000000000000         -5.4910677663548433E-017
  0.38819999999999999         -1.5487294667896457E-016
  0.38930000000000009         -2.6644421913552961E-016
  0.39040000000000008         -3.5569925716126744E-016
  0.39150000000000007         -3.7914248216330631E-016
  0.39260000000000006         -2.9413510260981198E-016
  0.39370000000000005         -7.3147892587974557E-017
  0.39480000000000004          2.8128855094550003E-016
  0.39590000000000003          7.2524517366953775E-016
  0.39700000000000002          1.1702037569608385E-015
  0.39810000000000001          1.4915294112709016E-015
  0.39920000000000000          1.5498446650740448E-015
  0.40029999999999999          1.2233655564337681E-015
  0.40140000000000009          4.4585553824288385E-016
  0.40250000000000008         -7.5793736318088313E-016
  0.40360000000000007         -2.2488197471592008E-015
  0.40470000000000006         -3.7704134282225913E-015
  0.40580000000000005         -4.9729706673949919E-015
  0.40690000000000004         -5.4648172888771464E-015
  0.40800000000000003         -4.8867439839139250E-015
  0.40910000000000002         -2.9990249700810731E-015
  0.41020000000000001          2.3361859546521208E-016
  0.41130000000000000          4.5759417610614309E-015
  0.41239999999999999          9.4912692952969259E-015
  0.41350000000000009          1.4158843504108801E-014
  0.41460000000000008          1.7547082019277356E-014
  0.41570000000000007          1.8543470592055113E-014
  0.41680000000000006          1.6134041327876998E-014
  0.41790000000000005          9.6172298708172184E-015
  0.41900000000000004         -1.1712143731460313E-015
  0.42010000000000003         -1.5653588993601308E-014
  0.42120000000000002         -3.2364336091748186E-014
  0.42230000000000001         -4.8906455870755677E-014
  0.42340000000000000         -6.2054684036704638E-014
  0.42449999999999999         -6.8043606773343646E-014
  0.42560000000000009         -6.3062294101967620E-014
  0.42670000000000008         -4.3947606513140836E-014
  0.42780000000000007         -9.0262837826380997E-015
  0.42890000000000006          4.0995889815471573E-014
  0.43000000000000005          1.0225316009497207E-013
  0.43110000000000004          1.6724614043932967E-013
  0.43220000000000003          2.2489335968576413E-013
  0.43330000000000002          2.6130532741926171E-013
  0.43440000000000001          2.6140672742744342E-013
  0.43550000000000000          2.1140570847719142E-013
  0.43659999999999999          1.0193563793623253E-013
  0.43770000000000009         -6.8505144861907147E-014
  0.43880000000000008         -2.9038371100048588E-013
  0.43990000000000007         -5.4094494725612230E-013
  0.44100000000000006         -7.8376720261466581E-013
  0.44210000000000005         -9.7074030671467915E-013
  0.44320000000000004         -1.0469039914487444E-012
  0.44430000000000003         -9.5819001604685594E-013
  0.44540000000000002         -6.6158954399944681E-013
  0.44650000000000001         -1.3668078713106879E-013
  0.44760000000000000          6.0311228667481176E-013
  0.44869999999999999          1.5015961564446290E-012
  0.44980000000000009          2.4554865519360591E-012
  0.45090000000000008          3.3168350878354236E-012
  0.45200000000000007          3.9038329860408005E-012
  0.45310000000000006          4.0207069444686550E-012
  0.45420000000000005          3.4861454001333669E-012
  0.45530000000000004          2.1681634352482826E-012
  0.45640000000000003          2.1691602371731386E-014
  0.45750000000000002         -2.8763057473984999E-012
  0.45860000000000001         -6.3004757661078159E-012
  0.45970000000000000         -9.8662206876598546E-012
  0.46079999999999999         -1.3040620666648906E-011
  0.46190000000000009         -1.5179900739181740E-011
  0.46300000000000008         -1.5595552627090115E-011
  0.46410000000000007         -1.3647532756677627E-011
  0.46520000000000006         -8.8584313495676525E-012
  0.46630000000000005         -1.0376535785130980E-012
  0.46740000000000004          9.5999918084399560E-012
  0.46850000000000003          2.2340549549193511E-011
  0.46960000000000002          3.5923149871441851E-011
  0.47070000000000001          4.8558653625851989E-011
  0.47180000000000000          5.8031333211028269E-011
  0.47289999999999999          6.1892921343620344E-011
  0.47400000000000009          5.7747744086622532E-011
  0.47510000000000008          4.3614462735819259E-011
  0.47620000000000007          1.8335059165375256E-011
  0.47730000000000006         -1.8012860300564704E-011
  0.47840000000000005         -6.3756805390724480E-011