 -0.12000000000000000          0.0000000000000000     
 -0.11889999999999999          0.0000000000000000     
 -0.11780000000000000          0.0000000000000000     
 -0.11670000000000000          0.0000000000000000     
 -0.11559999999999999          0.0000000000000000     
 -0.11449999999999999          0.0000000000000000     
 -0.11340000000000000          0.0000000000000000     
 -0.11230000000000000          0.0000000000000000     
 -0.11119999999999999          0.0000000000000000     
 -0.11009999999999999          0.0000000000000000     
 -0.10900000000000000          0.0000000000000000     
 -0.10790000000000000          0.0000000000000000     
 -0.10679999999999999          0.0000000000000000     
 -0.10569999999999999          0.0000000000000000     
 -0.10460000000000000          0.0000000000000000     
 -0.10349999999999999          0.0000000000000000     
 -0.10239999999999999          0.0000000000000000     
 -0.10130000000000000          0.0000000000000000     
 -0.10020000000000000          0.0000000000000000     
  -9.9099999999999994E-002     0.0000000000000000     
  -9.7999999999999990E-002     0.0000000000000000     
  -9.6899999999999986E-002     0.0000000000000000     
  -9.5799999999999996E-002     0.0000000000000000     
  -9.4699999999999993E-002     0.0000000000000000     
  -9.3599999999999989E-002     0.0000000000000000     
  -9.2499999999999999E-002     0.0000000000000000     
  -9.1399999999999995E-002     0.0000000000000000     
  -9.0299999999999991E-002     0.0000000000000000     
  -8.9200000000000002E-002     0.0000000000000000     
  -8.8099999999999984E-002     0.0000000000000000     
  -8.6999999999999994E-002     0.0000000000000000     
  -8.5899999999999990E-002     0.0000000000000000     
  -8.4799999999999986E-002     0.0000000000000000     
  -8.3699999999999997E-002     0.0000000000000000     
  -8.2599999999999993E-002     0.0000000000000000     
  -8.1499999999999989E-002     0.0000000000000000     
  -8.0399999999999999E-002     0.0000000000000000     
  -7.9299999999999995E-002     0.0000000000000000     
  -7.8199999999999992E-002     0.0000000000000000     
  -7.7100000000000002E-002     0.0000000000000000     
  -7.5999999999999984E-002     0.0000000000000000     
  -7.4899999999999994E-002     0.0000000000000000     
  -7.3799999999999991E-002     0.0000000000000000     
  -7.2699999999999987E-002     0.0000000000000000     
  -7.1599999999999997E-002     0.0000000000000000     
  -7.0499999999999993E-002     0.0000000000000000     
  -6.9399999999999989E-002     0.0000000000000000     
  -6.8300000000000000E-002     0.0000000000000000     
  -6.7199999999999996E-002     0.0000000000000000     
  -6.6099999999999992E-002     0.0000000000000000     
  -6.5000000000000002E-002     0.0000000000000000     
  -6.3899999999999985E-002     0.0000000000000000     
  -6.2799999999999995E-002     0.0000000000000000     
  -6.1699999999999991E-002     0.0000000000000000     
  -6.0599999999999994E-002     0.0000000000000000     
  -5.9499999999999990E-002     0.0000000000000000     
  -5.8399999999999994E-002     0.0000000000000000     
  -5.7299999999999990E-002     4.5169616799676384E-051
  -5.6199999999999986E-002     9.0339233599352768E-051
  -5.5099999999999996E-002     7.6211741399556970E-047
  -5.3999999999999992E-002     1.5239186406735417E-046
  -5.2899999999999989E-002     7.6228322524475378E-047
  -5.1799999999999985E-002    -3.0463297270331788E-046
  -5.0699999999999995E-002    -1.1429222673616670E-045
  -4.9599999999999991E-002    -1.5797228710133613E-045
  -4.8499999999999988E-002     4.6303362882439467E-046
  -4.7399999999999998E-002     1.0366225270064638E-044
  -4.6299999999999994E-002     2.7013135513846270E-044
  -4.5199999999999990E-002     4.1221788025498734E-044
  -4.4099999999999986E-002     1.9647689204582665E-044
  -4.2999999999999997E-002    -9.3310975588676267E-044
  -4.1899999999999993E-002    -3.3772594711943248E-043
  -4.0799999999999989E-002    -6.4039079722017238E-043
  -3.9699999999999985E-002    -6.4639136741398455E-043
  -3.8599999999999995E-002     3.8775020765973239E-043
  -3.7499999999999992E-002     3.3241226915617371E-042
  -3.6399999999999988E-002     8.1006201948837966E-042
  -3.5299999999999984E-002     1.1686337224625762E-041
  -3.4199999999999994E-002     6.0469444774568534E-042
  -3.3099999999999991E-002    -2.0969775043755611E-041
  -3.1999999999999987E-002    -7.6918040574926462E-041
  -3.0899999999999997E-002    -1.4450003617600534E-040
  -2.9799999999999993E-002    -1.5478507075002726E-040
  -2.8699999999999989E-002     2.2364095096191351E-041
  -2.7599999999999986E-002     5.2449957004633267E-040
  -2.6499999999999996E-002     1.3304723137668688E-039
  -2.5399999999999992E-002     1.9888708486090856E-039
  -2.4299999999999988E-002     1.3953753735846739E-039
  -2.3199999999999985E-002    -2.0141158827572611E-039
  -2.2099999999999995E-002    -9.1637589474459346E-039
  -2.0999999999999991E-002    -1.8106750740424721E-038
  -1.9899999999999987E-002    -2.1419694262466621E-038
  -1.8799999999999983E-002    -5.6705087132375378E-039
  -1.7699999999999994E-002     4.3040155683905007E-038
  -1.6599999999999990E-002     1.2406791430610090E-037
  -1.5499999999999986E-002     1.9975076309216104E-037
  -1.4399999999999996E-002     1.7889610573706955E-037
  -1.3299999999999992E-002    -6.6598545358385623E-038
  -1.2199999999999989E-002    -6.2035831042386102E-037
  -1.1099999999999985E-002    -1.3668264593476939E-036
  -9.9999999999999950E-003    -1.8198838705247720E-036
  -8.8999999999999913E-003    -1.0890765130106660E-036
  -7.7999999999999875E-003     1.7889243899122650E-036
  -6.6999999999999837E-003     6.9851983013023042E-036
  -5.5999999999999939E-003     1.2620036457906765E-035
  -4.4999999999999901E-003     1.3828269188081010E-035
  -3.3999999999999864E-003     3.4875341270840753E-036
  -2.2999999999999826E-003    -2.3935920679063799E-035
  -1.1999999999999927E-003    -6.5107686769827080E-035
  -9.9999999999988987E-005    -9.9651780033324082E-035
   1.0000000000000148E-003    -8.7591803805743300E-035
   2.1000000000000185E-003     1.8375693534976418E-035
   3.2000000000000084E-003     2.3910536419116967E-034
   4.3000000000000121E-003     5.1866257250974895E-034
   5.4000000000000159E-003     6.8294527212685080E-034
   6.5000000000000058E-003     4.5411551064641887E-034
   7.6000000000000234E-003    -4.2834314873132255E-034
   8.7000000000000133E-003    -1.9651142931403777E-033
   9.8000000000000032E-003    -3.6064042298958385E-033
   1.0900000000000021E-002    -4.1069164044700303E-033
   1.2000000000000011E-002    -1.8044988086863266E-033
   1.3100000000000001E-002     4.4600697885615286E-033
   1.4200000000000018E-002     1.3868697059352204E-032
   1.5300000000000008E-002     2.2226512193821321E-032
   1.6400000000000026E-002     2.1842915628202006E-032
   1.7500000000000016E-002     4.0728277534960184E-033
   1.8600000000000005E-002    -3.4862449226725053E-032
   1.9700000000000023E-002    -8.6142249211334683E-032
   2.0800000000000013E-002    -1.2287618811911413E-031
   2.1900000000000003E-002    -1.0326703614970504E-031
   2.3000000000000020E-002     1.1911046349412750E-032
   2.4100000000000010E-002     2.2751097299657282E-031
   2.5200000000000000E-002     4.7869913623680613E-031
   2.6300000000000018E-002     6.1528060449106936E-031
   2.7400000000000008E-002     4.3473484056098873E-031
   2.8500000000000025E-002    -2.1744464726759008E-031
   2.9600000000000015E-002    -1.2946808076121701E-030
   3.0700000000000005E-002    -2.4087757312741442E-030
   3.1800000000000023E-002    -2.8130964420515008E-030
   3.2900000000000013E-002    -1.6247143406206208E-030
   3.4000000000000002E-002     1.6740931758382464E-030
   3.5100000000000020E-002     6.5783923304290948E-030
   3.6200000000000010E-002     1.1078309915812547E-029
   3.7300000000000028E-002     1.1823312665947684E-029
   3.8400000000000017E-002     5.3273870018558114E-030
   3.9500000000000007E-002    -9.7979099128333029E-030
   4.0600000000000025E-002    -3.0303013377696311E-029
   4.1700000000000015E-002    -4.6922147462698974E-029
   4.2800000000000005E-002    -4.5940925686657829E-029
   4.3900000000000022E-002    -1.4843931016637365E-029
   4.5000000000000012E-002     4.8695859382109171E-029
   4.6100000000000002E-002     1.2794522887276609E-028
   4.7200000000000020E-002     1.8418805700547091E-028
   4.8300000000000010E-002     1.6580759752467181E-028
   4.9400000000000027E-002     3.1886190836613470E-029
   5.0500000000000017E-002    -2.1473688800674694E-028
   5.1600000000000007E-002    -4.9943810033978572E-028
   5.2700000000000025E-002    -6.7378423834395583E-028
   5.3800000000000014E-002    -5.5796757944682336E-028
   5.4900000000000004E-002    -3.0408876515553843E-029
   5.6000000000000022E-002     8.6031769839950402E-028
   5.7100000000000012E-002     1.8156992299897649E-027
   5.8200000000000002E-002     2.3086402004264804E-027
   5.9300000000000019E-002     1.7561332613676503E-027
   6.0400000000000009E-002    -1.6765599235497179E-028
   6.1500000000000027E-002    -3.1803001963710868E-027
   6.2600000000000017E-002    -6.1889495745053490E-027
   6.3700000000000007E-002    -7.4462615289716344E-027
   6.4800000000000024E-002    -5.1836655086909583E-027
   6.5900000000000014E-002     1.3720200681420880E-027
   6.7000000000000004E-002     1.0972739470294061E-026
   6.8100000000000022E-002     1.9907150883244243E-026
   6.9200000000000012E-002     2.2729508823594758E-026
   7.0300000000000029E-002     1.4394489453051581E-026
   7.1400000000000019E-002    -6.6500340412604995E-027
   7.2500000000000009E-002    -3.5656959377444654E-026
   7.3600000000000027E-002    -6.0815863833504548E-026
   7.4700000000000016E-002    -6.6063546347537959E-026
   7.5800000000000006E-002    -3.7786846790592679E-026
   7.6900000000000024E-002     2.6297432302944688E-026
   7.8000000000000014E-002     1.0991984969047355E-025
   7.9100000000000004E-002     1.7757813834249305E-025
   8.0200000000000021E-002     1.8413374330266279E-025
   8.1300000000000011E-002     9.4603606795545841E-026
   8.2400000000000029E-002    -9.1611281822827371E-026
   8.3500000000000019E-002    -3.2312474861909597E-025
   8.4600000000000009E-002    -4.9847140829002336E-025
   8.5700000000000026E-002    -4.9604088773705215E-025
   8.6800000000000016E-002    -2.2945433929095108E-025
   8.7900000000000006E-002     2.8920283207351939E-025
   8.9000000000000024E-002     9.0845435964650494E-025
   9.0100000000000013E-002     1.3512028547862061E-024
   9.1200000000000003E-002     1.3014832381876131E-024
   9.2300000000000021E-002     5.5214982259179542E-025
   9.3400000000000011E-002    -8.3630177823911786E-025
   9.4500000000000028E-002    -2.4440146385294655E-024
   9.5600000000000018E-002    -3.5453412976457971E-024
   9.6700000000000008E-002    -3.3448440496879934E-024
   9.7800000000000026E-002    -1.3544330816999113E-024
   9.8900000000000016E-002     2.2207055575894031E-024
  0.10000000000000001          6.2815160415367741E-024
  0.10110000000000002          9.0021023673843730E-024
  0.10220000000000001          8.4363891602373548E-024
  0.10330000000000003          3.4432574178176627E-024
  0.10440000000000002         -5.4026005990094394E-024
  0.10550000000000001         -1.5376909524285736E-023
  0.10660000000000003         -2.2061666716843807E-023
  0.10770000000000002         -2.0825742623348950E-023
  0.10880000000000001         -9.0098260085068342E-024
  0.10990000000000003          1.1980600345061646E-023
  0.11100000000000002          3.5738010805802394E-023
  0.11210000000000001          5.1981297994250567E-023
  0.11320000000000002          4.9999844320666326E-023
  0.11430000000000001          2.3630277208337563E-023
  0.11540000000000003         -2.4056796570166527E-023
  0.11650000000000002         -7.8724393558596563E-023
  0.11760000000000001         -1.1735278512423615E-022
  0.11870000000000003         -1.1590519752691555E-022
  0.11980000000000002         -6.0280180042475641E-023
  0.12090000000000001          4.3457513256810753E-023
  0.12200000000000003          1.6466337756044734E-022
  0.12310000000000001          2.5365946875710046E-022
  0.12420000000000003          2.5813383419424655E-022
  0.12530000000000002          1.4648955168182032E-022
  0.12640000000000001         -7.0364466925995689E-023
  0.12750000000000003         -3.2946396753232442E-022
  0.12860000000000002         -5.2707127336632411E-022
  0.12970000000000001         -5.5257408444195879E-022
  0.13080000000000003         -3.3688955422684516E-022
  0.13190000000000002          1.0213261821246276E-022
  0.13300000000000001          6.3917543558767569E-022
  0.13410000000000000          1.0633369753274352E-021
  0.13520000000000004          1.1461838451213131E-021
  0.13630000000000003          7.3979190549077772E-022
  0.13740000000000002         -1.3027792410056225E-022
  0.13850000000000001         -1.2209392410001645E-021
  0.13960000000000000         -2.1119460463829864E-021
  0.14070000000000005         -2.3389956532085620E-021
  0.14180000000000004         -1.5885765695648283E-021
  0.14290000000000003          1.1387534414176436E-022
  0.14400000000000002          2.3090159290178979E-021
  0.14510000000000001          4.1730482782000556E-021
  0.14620000000000000          4.7710138261702256E-021
  0.14730000000000004          3.4373095655523981E-021
  0.14840000000000003          1.5330431105073307E-022
  0.14950000000000002         -4.2456815059031767E-021
  0.15060000000000001         -8.1762585874690285E-021
  0.15170000000000000         -9.7723639373758152E-021
  0.15280000000000005         -7.6129676421383984E-021
  0.15390000000000004         -1.4722160383372704E-021
  0.15500000000000003          7.2267794185570686E-021
  0.15610000000000002          1.5536077549056937E-020
  0.15720000000000001          1.9797013943259299E-020
  0.15830000000000000          1.6991269359414780E-020
  0.15940000000000004          6.2034890445491731E-021
  0.16050000000000003         -1.0394759551714317E-020
  0.16160000000000002         -2.7587557875789229E-020
  0.16270000000000001         -3.8445079895967553E-020
  0.16380000000000000         -3.6730198548945346E-020
  0.16490000000000005         -1.9661673076638535E-020
  0.16600000000000004          1.0022341549958732E-020
  0.16710000000000003          4.3737180343438392E-020
  0.16820000000000002          6.9039546985923410E-020
  0.16930000000000001          7.3695266113308876E-020
  0.17040000000000000          5.0674152431996443E-020
  0.17150000000000004          2.2549844361419569E-021
  0.17260000000000003         -5.8649731689729895E-020
  0.17370000000000002         -1.1115037707278667E-019
  0.17480000000000001         -1.3287243478442463E-019
  0.17590000000000000         -1.0853694418197500E-019
  0.17700000000000005         -3.7627565172994737E-020
  0.17810000000000004          6.2167269764903165E-020
  0.17920000000000003          1.5807142481379226E-019
  0.18030000000000002          2.1207876974823551E-019
  0.18140000000000001          1.9502608433060079E-019
  0.18250000000000000          1.0008378910939895E-019
  0.18360000000000004         -4.9939804265223444E-020
  0.18470000000000003         -2.0577436372350423E-019
  0.18580000000000002         -3.0628121248042581E-019
  0.18690000000000001         -3.0093368451587579E-019
  0.18800000000000000         -1.7265960790812360E-019
  0.18910000000000005          4.8252243671096115E-020
  0.19020000000000004          2.8682736743124526E-019
  0.19130000000000003          4.4516038531062141E-019
  0.19240000000000002          4.3845272519120273E-019
  0.19350000000000001          2.3360891535180937E-019
  0.19460000000000005         -1.2498413652329642E-019
  0.19570000000000004         -5.1604603110927259E-019
  0.19680000000000003         -7.7416101334943094E-019
  0.19790000000000002         -7.4868208322424256E-019
  0.19900000000000001         -3.7074606032889641E-019
  0.20010000000000000          2.9703059254510951E-019
  0.20120000000000005          1.0524303188484610E-018
  0.20230000000000004          1.6002093444879651E-018
  0.20340000000000003          1.6476904930804031E-018
  0.20450000000000002          1.0230148048842132E-018
  0.20560000000000000         -2.2513767673176828E-019
  0.20670000000000005         -1.7895157479088969E-018
  0.20780000000000004         -3.1568042805842516E-018
  0.20890000000000003         -3.7511247945512361E-018
  0.21000000000000002         -3.1345624903138775E-018
  0.21110000000000001         -1.2022009539157758E-018
  0.21220000000000000          1.7016028435826120E-018
  0.21330000000000005          4.8045405321077809E-018
  0.21440000000000003          7.0852208828854485E-018
  0.21550000000000002          7.5762244218874702E-018
  0.21660000000000001          5.7073595217473897E-018
  0.21770000000000000          1.5761420279784058E-018
  0.21880000000000005         -3.9607383835385599E-018
  0.21990000000000004         -9.4355944866133907E-018
  0.22100000000000003         -1.3144268424952911E-017
  0.22210000000000002         -1.3653874559352219E-017
  0.22320000000000001         -1.0292585086865212E-017
  0.22430000000000000         -3.4574860389956481E-018
  0.22540000000000004          5.3808586086375588E-018
  0.22650000000000003          1.4009178425929141E-017
  0.22760000000000002          2.0060258748413101E-017
  0.22870000000000001          2.1689702074047558E-017
  0.22980000000000000          1.8129451756742529E-017
  0.23090000000000005          9.9362232785779278E-018
  0.23200000000000004         -1.1517725651233372E-018
  0.23310000000000003         -1.2705267922114435E-017
  0.23420000000000002         -2.2275752703271970E-017
  0.23530000000000001         -2.8018009817737076E-017
  0.23640000000000000         -2.9052799343146475E-017
  0.23750000000000004         -2.5462482223149168E-017
  0.23860000000000003         -1.7963678836203531E-017
  0.23970000000000002         -7.4421736269717004E-018
  0.24080000000000001          5.3948515720067260E-018
  0.24190000000000000          2.0034361801027687E-017
  0.24300000000000005          3.5774604451916745E-017
  0.24410000000000004          5.1086856739941165E-017
  0.24520000000000003          6.3052823523296789E-017
  0.24630000000000002          6.7287410938059823E-017
  0.24740000000000001          5.8666521053695302E-017
  0.24850000000000005          3.2918296259035840E-017
  0.24960000000000004         -1.1229546348278444E-017
  0.25070000000000003         -7.0001898669092731E-017
  0.25180000000000002         -1.3347322181347320E-016
  0.25290000000000001         -1.8617509859635568E-016
  0.25400000000000000         -2.0979809101310847E-016
  0.25510000000000005         -1.8775507949218323E-016
  0.25620000000000004         -1.1068626977946889E-016
  0.25730000000000003          1.8555191397883714E-017
  0.25840000000000002          1.8208880283179020E-016
  0.25950000000000001          3.4773247962161540E-016
  0.26060000000000005          4.7388987087753135E-016
  0.26170000000000004          5.1816006129143049E-016
  0.26280000000000003          4.4812110900007489E-016
  0.26390000000000002          2.5188456323956758E-016
  0.26500000000000001         -5.4319327419981486E-017
  0.26610000000000000         -4.2394837254897689E-016
  0.26720000000000005         -7.8481651894165616E-016
  0.26830000000000004         -1.0506885411336838E-015
  0.26940000000000003         -1.1382990161707344E-015
  0.27050000000000002         -9.8689589753091375E-016
  0.27160000000000001         -5.7647337524466409E-016
  0.27270000000000005          5.9415647676258428E-017
  0.27380000000000004          8.2989758998774384E-016
  0.27490000000000003          1.5944947304910457E-015
  0.27600000000000002          2.1829326793759204E-015
  0.27710000000000001          2.4254183083691754E-015
  0.27820000000000000          2.1893828373647703E-015
  0.27930000000000005          1.4165157578991612E-015
  0.28040000000000004          1.5239132202124165E-016
  0.28150000000000003         -1.4393793035575089E-015
  0.28260000000000002         -3.0853095168094459E-015
  0.28370000000000001         -4.4362676719179167E-015
  0.28480000000000005         -5.1267051137117232E-015
  0.28590000000000004         -4.8518299708552710E-015
  0.28700000000000003         -3.4496930018963176E-015
  0.28810000000000002         -9.7064199167124538E-016
  0.28920000000000001          2.2848515511265089E-015
  0.29030000000000000          5.7761916718981336E-015
  0.29140000000000005          8.7892630973765861E-015
  0.29250000000000004          1.0557121110012799E-014
  0.29360000000000003          1.0419035250298505E-014
  0.29470000000000002          7.9898574888704929E-015
  0.29580000000000001          3.3035625831474153E-015
  0.29690000000000005         -3.1065134974683211E-015
  0.29800000000000004         -1.0221090969266735E-014
  0.29910000000000003         -1.6657167730700507E-014
  0.30020000000000002         -2.0893035156888823E-014
  0.30130000000000001         -2.1566773735120927E-014
  0.30240000000000000         -1.7798198886104805E-014
  0.30350000000000005         -9.4707378721579867E-015
  0.30460000000000004          2.5928626298993698E-015
  0.30570000000000003          1.6616803565756297E-014
  0.30680000000000002          3.0053441086840839E-014
  0.30790000000000001          3.9959387358903273E-014
  0.30900000000000005          4.3527813962772348E-014
  0.31010000000000004          3.8699906222564192E-014
  0.31120000000000003          2.4747375278348152E-014
  0.31230000000000002          2.7011848130178451E-015
  0.31340000000000001         -2.4494320405097815E-014
  0.31450000000000006         -5.2193688781557336E-014
  0.31560000000000005         -7.4666159495452323E-014
  0.31670000000000004         -8.6075960149652284E-014
  0.31780000000000003         -8.1700936843928979E-014
  0.31890000000000002         -5.9181220341321473E-014
  0.32000000000000001         -1.9532868746865211E-014
  0.32110000000000005          3.2349953422303141E-014
  0.32220000000000004          8.7931151073452049E-014
  0.32330000000000003          1.3611952345473693E-013
  0.32440000000000002          1.6514957904005686E-013
  0.32550000000000001          1.6500457800238082E-013
  0.32660000000000006          1.2994985265752868E-013
  0.32770000000000005          6.0628018407138187E-014
  0.32880000000000004         -3.4843237305066930E-014
  0.32990000000000003         -1.4120998414548066E-013
  0.33100000000000002         -2.3804955052615687E-013
  0.33210000000000001         -3.0322112379711661E-013
  0.33320000000000005         -3.1729214861531731E-013
  0.33430000000000004         -2.6813042112349625E-013
  0.33540000000000003         -1.5468897096723373E-013
  0.33650000000000002          1.0953295604094346E-014
  0.33760000000000001          2.0398184940914511E-013
  0.33870000000000006          3.8992183586831957E-013
  0.33980000000000005          5.3011770348153429E-013
  0.34090000000000004          5.8880922332468133E-013
  0.34200000000000003          5.4059029307747469E-013
  0.34310000000000002          3.7684764444853308E-013
  0.34420000000000001          1.0984769344336935E-013
  0.34530000000000005         -2.2653242121426871E-013
  0.34640000000000004         -5.7991197783793090E-013
  0.34750000000000003         -8.8621255252498061E-013
  0.34860000000000002         -1.0794074796486392E-012
  0.34970000000000001         -1.1029420169575472E-012
  0.35080000000000006         -9.2119496424854437E-013
  0.35190000000000005         -5.2919078406606403E-013
  0.35300000000000004          4.1190304953960577E-014
  0.35410000000000003          7.2001589752296055E-013
  0.35520000000000002          1.4041841344272342E-012
  0.35630000000000001          1.9687905746086592E-012
  0.35740000000000005          2.2845104120191873E-012
  0.35850000000000004          2.2394712805690515E-012
  0.35960000000000003          1.7629612663114305E-012
  0.36070000000000002          8.4728362462087711E-013
  0.36180000000000001         -4.3660584835917489E-013
  0.36290000000000006         -1.9340787795524853E-012
  0.36400000000000005         -3.4159974208373280E-012
  0.36510000000000004         -4.6038129234181791E-012
  0.36620000000000003         -5.2096705854727765E-012
  0.36730000000000002         -4.9874082326132478E-012
  0.36840000000000006         -3.7872154270443953E-012
  0.36950000000000005         -1.6043872665595171E-012
  0.37060000000000004          1.3882679789329180E-012
  0.37170000000000003          4.8337519821585515E-012
  0.37280000000000002          8.2161809792814658E-012
  0.37390000000000001          1.0919459576449368E-011
  0.37500000000000006          1.2314816836588883E-011
  0.37610000000000005          1.1866801933882567E-011
  0.37720000000000004          9.2426171345088640E-012
  0.37830000000000003          4.4069961632458680E-012
  0.37940000000000002         -2.3150447081724609E-012
  0.38050000000000006         -1.0222322334626074E-011
  0.38160000000000005         -1.8277727248676969E-011
  0.38270000000000004         -2.5206607282638053E-011
  0.38380000000000003         -2.9647338453342639E-011
  0.38490000000000002         -3.0340326649061042E-011
  0.38600000000000001         -2.6335076039562069E-011
  0.38710000000000000         -1.7190119439023420E-011
  0.38819999999999999         -3.1380646462048864E-012
  0.38930000000000009          1.4811769491980728E-011
  0.39040000000000008          3.4857621645886487E-011
  0.39150000000000007          5.4494575051486302E-011
  0.39260000000000006          7.0717445811044278E-011
  0.39370000000000005          8.0333201065801586E-011
  0.39480000000000004          8.0363897914760649E-011
  0.39590000000000003          6.8505278646050294E-011
  0.39700000000000002          4.3591410330796572E-011
  0.39810000000000001          6.0046333451243514E-012
  0.39920000000000000         -4.2034822603639395E-011
  0.40029999999999999         -9.6362119250957582E-011
  0.40140000000000009         -1.5099376480819329E-010
  0.40250000000000008         -1.9851495619340234E-010
  0.40360000000000007         -2.3072820888282034E-010
  0.40470000000000006         -2.3953086459469926E-010
  0.40580000000000005         -2.1795667671175920E-010
  0.40690000000000004         -1.6128776502546304E-010
  0.40800000000000003         -6.8121631616032639E-011
  0.40910000000000002          5.8733805922302796E-011
  0.41020000000000001          2.1166555970252499E-010
  0.41130000000000000          3.7807949864021883E-010
  0.41239999999999999          5.4074022640766216E-010
  0.41350000000000009          6.7869141911279604E-010
  0.41460000000000008          7.6877994095964671E-010
  0.41570000000000007          7.8775316878904920E-010
  0.41680000000000006          7.1483882278682132E-010
  0.41790000000000005          5.3465037730824422E-010
  0.41900000000000004          2.4019417278562019E-010
  0.42010000000000003         -1.6430273984924876E-010
  0.42120000000000002         -6.6106671937241077E-010
  0.42230000000000001         -1.2172913545531812E-009
  0.42340000000000000         -1.7848069592015228E-009
  0.42449999999999999         -2.3011650833059028E-009
  0.42560000000000009         -2.6923015524156110E-009
  0.42670000000000008         -2.8768233060178537E-009
  0.42780000000000007         -2.7718282490952048E-009
  0.42890000000000006         -2.3000406354541113E-009
  0.43000000000000005         -1.3979415505993605E-009
  0.43110000000000004         -2.4506122808365277E-011
  0.43220000000000003          1.8298533762460476E-009
  0.43330000000000002          4.1345076062361027E-009
  0.43440000000000001          6.8102768172109253E-009
  0.43550000000000000          9.7217140485810709E-009
  0.43659999999999999          1.2670018239122602E-008
  0.43770000000000009          1.5386433694203066E-008
  0.43880000000000008          1.7525820309993217E-008
  0.43990000000000007          1.8659879341083198E-008
  0.44100000000000006          1.8269356860051937E-008
  0.44210000000000005          1.5734330446361015E-008
  0.44320000000000004          1.0321480912247322E-008
  0.44430000000000003          1.1670505927696170E-009
  0.44540000000000002         -1.2746113850353449E-008
  0.44650000000000001         -3.2619214314646850E-008
  0.44760000000000000         -5.9877835678888555E-008
  0.44869999999999999         -9.6224347879690451E-008
  0.44980000000000009         -1.4370467719893418E-007
  0.45090000000000008         -2.0479249434316467E-007
  0.45200000000000007         -2.8249327715173141E-007
  0.45310000000000006         -3.8047194623473484E-007
  0.45420000000000005         -5.0320762870044610E-007
  0.45530000000000004         -6.5617849393446006E-007
  0.45640000000000003         -8.4608144643589255E-007
  0.45750000000000002         -1.0810911238020726E-006
  0.45860000000000001         -1.3711622019630338E-006
  0.45970000000000000         -1.7283803194056247E-006
  0.46079999999999999         -2.1673669676356554E-006
  0.46190000000000009         -2.7057429518088955E-006
  0.46300000000000008         -3.3646553490376810E-006
  0.46410000000000007         -4.1693750786575600E-006
  0.46520000000000006         -5.1499710301587001E-006
  0.46630000000000005         -6.3420608796794965E-006
  0.46740000000000004         -7.7876544765446536E-006
  0.46850000000000003         -9.5360871595139048E-006
  0.46960000000000002         -1.1645047582376791E-005
  0.47070000000000001         -1.4181714903900380E-005
  0.47180000000000000         -1.7223994421773598E-005
  0.47289999999999999         -2.0861863700392648E-005
  0.47400000000000009         -2.5198833537419254E-005
  0.47510000000000008         -3.0353508160870403E-005
  0.47620000000000007         -3.6461242058114454E-005
  0.47730000000000006         -4.3675893227672862E-005
  0.47840000000000005         -5.2171641269465954E-005