 -0.12000000000000000          0.0000000000000000     
 -0.11889999999999999          0.0000000000000000     
 -0.11780000000000000          0.0000000000000000     
 -0.11670000000000000          0.0000000000000000     
 -0.11559999999999999          0.0000000000000000     
 -0.11449999999999999          0.0000000000000000     
 -0.11340000000000000          0.0000000000000000     
 -0.11230000000000000          0.0000000000000000     
 -0.11119999999999999          0.0000000000000000     
 -0.11009999999999999          0.0000000000000000     
 -0.10900000000000000          0.0000000000000000     
 -0.10790000000000000          0.0000000000000000     
 -0.10679999999999999          0.0000000000000000     
 -0.10569999999999999          0.0000000000000000     
 -0.10460000000000000          0.0000000000000000     
 -0.10349999999999999          0.0000000000000000     
 -0.10239999999999999          0.0000000000000000     
 -0.10130000000000000          0.0000000000000000     
 -0.10020000000000000          0.0000000000000000     
  -9.9099999999999994E-002     0.0000000000000000     
  -9.7999999999999990E-002     0.0000000000000000     
  -9.6899999999999986E-002     0.0000000000000000     
  -9.5799999999999996E-002     0.0000000000000000     
  -9.4699999999999993E-002     6.2095193997359831E-052
  -9.3599999999999989E-002     3.0489766705718399E-051
  -9.2499999999999999E-002    -2.4211753812942269E-046
  -9.1399999999999995E-002    -1.1299231220749572E-045
  -9.0299999999999991E-002    -3.9548074635026310E-045
  -8.9200000000000002E-002    -1.1951678735506649E-044
  -8.8099999999999984E-002    -1.9210789686206292E-044
  -8.6999999999999994E-002     1.2293255982680855E-044
  -8.5899999999999990E-002     1.8737698386370906E-043
  -8.4799999999999986E-002     7.1771358297937320E-043
  -8.3699999999999997E-002     1.7714381813094468E-042
  -8.2599999999999993E-002     2.8667654125835233E-042
  -8.1499999999999989E-002     1.7205905316452321E-042
  -8.0399999999999999E-002    -6.2796508452413878E-042
  -7.9299999999999995E-002    -2.4688870969721097E-041
  -7.8199999999999992E-002    -4.5911212036136920E-041
  -7.7100000000000002E-002    -4.2357476779980563E-041
  -7.5999999999999984E-002     1.0756670422648042E-041
  -7.4899999999999994E-002     4.6843662043423009E-041
  -7.3799999999999991E-002    -1.8632413739901374E-040
  -7.2699999999999987E-002    -9.2478973269187614E-040
  -7.1599999999999997E-002    -1.4260519843381244E-039
  -7.0499999999999993E-002     1.5520598965029224E-039
  -6.9399999999999989E-002     1.3298923522174486E-038
  -6.8300000000000000E-002     3.3266975076075161E-038
  -6.7199999999999996E-002     3.6628848577073116E-038
  -6.6099999999999992E-002    -4.0572017756712431E-038
  -6.5000000000000002E-002    -2.6560382339424187E-037
  -6.3899999999999985E-002    -5.6110589842583298E-037
  -6.2799999999999995E-002    -4.7009073927240633E-037
  -6.1699999999999991E-002     8.8282002479006128E-037
  -6.0599999999999994E-002     4.0417568942361710E-036
  -5.9499999999999990E-002     7.2490124950866137E-036
  -5.8399999999999994E-002     4.2381300746590377E-036
  -5.7299999999999990E-002    -1.4440998801164840E-035
  -5.6199999999999986E-002    -5.0927663971724949E-035
  -5.5099999999999996E-002    -7.9308492912453710E-035
  -5.3999999999999992E-002    -2.9919101286752577E-035
  -5.2899999999999989E-002     1.8254235496471074E-034
  -5.1799999999999985E-002     5.4440783015372008E-034
  -5.0699999999999995E-002     7.6055152562874492E-034
  -4.9599999999999991E-002     1.7301403443091514E-034
  -4.8499999999999988E-002    -1.8888460807923500E-033
  -4.7399999999999998E-002    -5.0636886369520109E-033
  -4.6299999999999994E-002    -6.5625519691141231E-033
  -4.5199999999999990E-002    -9.3139621501092802E-034
  -4.4099999999999986E-002     1.6593895321824784E-032
  -4.2999999999999997E-002     4.1817793644741341E-032
  -4.1899999999999993E-002     5.2012052072474555E-032
  -4.0799999999999989E-002     6.5653386116320404E-033
  -3.9699999999999985E-002    -1.2615690724496870E-031
  -3.8599999999999995E-002    -3.1045187777057261E-031
  -3.7499999999999992E-002    -3.8283695808226360E-031
  -3.6399999999999988E-002    -6.7329230931700038E-032
  -3.5299999999999984E-002     8.3767150742584492E-031
  -3.4199999999999994E-002     2.0855543204622876E-030
  -3.3099999999999991E-002     2.6229557472005542E-030
  -3.1999999999999987E-002     7.2077170344132047E-031
  -3.0899999999999997E-002    -4.8701134784379608E-030
  -2.9799999999999993E-002    -1.2718415126311397E-029
  -2.8699999999999989E-002    -1.6686461136668154E-029
  -2.7599999999999986E-002    -6.7278986709931533E-030
  -2.6499999999999996E-002     2.4671136616290902E-029
  -2.5399999999999992E-002     7.0492522754277751E-029
  -2.4299999999999988E-002     9.8210017669601262E-029
  -2.3199999999999985E-002     5.3535741828182951E-029
  -2.2099999999999995E-002    -1.0695533224586256E-028
  -2.0999999999999991E-002    -3.5489407331903030E-028
  -1.9899999999999987E-002    -5.3309684325807086E-028
  -1.8799999999999983E-002    -3.6846921000482455E-028
  -1.7699999999999994E-002     3.7716139996599868E-028
  -1.6599999999999990E-002     1.6181763134167164E-027
  -1.5499999999999986E-002     2.6622333528446319E-027
  -1.4399999999999996E-002     2.2309144353626467E-027
  -1.3299999999999992E-002    -9.0325316126010243E-028
  -1.2199999999999989E-002    -6.6370121841235584E-027
  -1.1099999999999985E-002    -1.2202730245812608E-026
  -9.9999999999999950E-003    -1.2039181276387636E-026
  -8.8999999999999913E-003    -2.4117368793482323E-028
  -7.7999999999999875E-003     2.4144791491489325E-026
  -6.6999999999999837E-003     5.1180413908803482E-026
  -5.5999999999999939E-003     5.8440588484198869E-026
  -4.4999999999999901E-003     1.9512753989241205E-026
  -3.3999999999999864E-003    -7.5573162158519752E-026
  -2.2999999999999826E-003    -1.9545639676656811E-025
  -1.1999999999999927E-003    -2.5663836222592467E-025
  -9.9999999999988987E-005    -1.4956529406775082E-025
   1.0000000000000148E-003     1.8812657096594745E-025
   2.1000000000000185E-003     6.7387067524709027E-025
   3.2000000000000084E-003     1.0223398939395360E-024
   4.3000000000000121E-003     8.1302750153977955E-025
   5.4000000000000159E-003    -2.6696790180358421E-025
   6.5000000000000058E-003    -2.0642954160591794E-024
   7.6000000000000234E-003    -3.6931911876506170E-024
   8.7000000000000133E-003    -3.6636774700554003E-024
   9.8000000000000032E-003    -6.1945866455115912E-025
   1.0900000000000021E-002     5.4362435852059292E-024
   1.2000000000000011E-002     1.2050670073883316E-023
   1.3100000000000001E-002     1.4367912837896065E-023
   1.4200000000000018E-002     7.1562681170631876E-024
   1.5300000000000008E-002    -1.1303247478847548E-023
   1.6400000000000026E-002    -3.5178010863113491E-023
   1.7500000000000016E-002    -4.9997630491077686E-023
   1.8600000000000005E-002    -3.7553656204420988E-023
   1.9700000000000023E-002     1.2709740722520461E-023
   2.0800000000000013E-002     9.0036083009462160E-023
   2.1900000000000003E-002     1.5539573361068929E-022
   2.3000000000000020E-002     1.5125682593132477E-022
   2.4100000000000010E-002     3.2164308001263026E-023
   2.5200000000000000E-002    -1.9291112662930485E-022
   2.6300000000000018E-002    -4.3047178227715309E-022
   2.7400000000000008E-002    -5.1530656863230239E-022
   2.8500000000000025E-002    -2.8476622061982624E-022
   2.9600000000000015E-002     3.0074181081283584E-022
   3.0700000000000005E-002     1.0501557626712580E-021
   3.1800000000000023E-002     1.5337961649019298E-021
   3.2900000000000013E-002     1.2426890734290415E-021
   3.4000000000000002E-002    -9.7346265868850857E-023
   3.5100000000000020E-002    -2.1887274302604269E-021
   3.6200000000000010E-002    -4.0291445595813753E-021
   3.7300000000000028E-002    -4.1971851497739639E-021
   3.8400000000000017E-002    -1.5983124858287569E-021
   3.9500000000000007E-002     3.5883770056221363E-021
   4.0600000000000025E-002     9.3101290162475776E-021
   4.1700000000000015E-002     1.1997927653583047E-020
   4.2800000000000005E-002     8.1625196403375350E-021
   4.3900000000000022E-002    -3.1940831635830582E-021
   4.5000000000000012E-002    -1.8563566018246363E-020
   4.6100000000000002E-002    -2.9895270454686299E-020
   4.7200000000000020E-002    -2.7599585806090362E-020
   4.8300000000000010E-002    -6.1352397628412498E-021
   4.9400000000000027E-002     3.0253608118399564E-020
   5.0500000000000017E-002     6.5410359831142716E-020
   5.1600000000000007E-002     7.5958539010365608E-020
   5.2700000000000025E-002     4.3048979458431918E-020
   5.3800000000000014E-002    -3.3175179867033838E-020
   5.4900000000000004E-002    -1.2460354942232898E-019
   5.6000000000000022E-002    -1.8013926606961013E-019
   5.7100000000000012E-002    -1.4788946476910027E-019
   5.8200000000000002E-002    -8.0681183090905739E-021
   5.9300000000000019E-002     1.9981503493288953E-019
   6.0400000000000009E-002     3.7557122145911768E-019
   6.1500000000000027E-002     3.9507315177284158E-019
   6.2600000000000017E-002     1.7827430785430683E-019
   6.3700000000000007E-002    -2.4137260247686021E-019
   6.4800000000000024E-002    -6.8963804201231372E-019
   6.5900000000000014E-002    -9.0142539319074614E-019
   6.7000000000000004E-002    -6.4848367695763593E-019
   6.8100000000000022E-002     1.0348043647292475E-019
   6.9200000000000012E-002     1.0949492608977474E-018
   7.0300000000000029E-002     1.8154644546284841E-018
   7.1400000000000019E-002     1.7191117078013650E-018
   7.2500000000000009E-002     5.4629726939229581E-019
   7.3600000000000027E-002    -1.4064878864916287E-018
   7.4700000000000016E-002    -3.2555678071542782E-018
   7.5800000000000006E-002    -3.8470955920593081E-018
   7.6900000000000024E-002    -2.3575340607169456E-018
   7.8000000000000014E-002     1.0855390251072114E-018
   7.9100000000000004E-002     5.1340673757425414E-018
   8.0200000000000021E-002     7.5923551968674081E-018
   8.1300000000000011E-002     6.4345189089875804E-018
   8.2400000000000029E-002     1.0774274999447014E-018
   8.3500000000000019E-002    -6.7704688064540639E-018
   8.4600000000000009E-002    -1.3340925134930359E-017
   8.5700000000000026E-002    -1.4345551593823073E-017
   8.6800000000000016E-002    -7.3397746491325419E-018
   8.7900000000000006E-002     6.2271602346457323E-018
   8.9000000000000024E-002     2.0598458734302995E-017
   9.0100000000000013E-002     2.7704648966672505E-017
   9.1200000000000003E-002     2.1151625866976121E-017
   9.2300000000000021E-002     4.7251369376534299E-019
   9.3400000000000011E-002    -2.6778613072582428E-017
   9.4500000000000028E-002    -4.6979528703639698E-017
   9.5600000000000018E-002    -4.6512725523836076E-017
   9.6700000000000008E-002    -1.9630831060742666E-017
   9.7800000000000026E-002     2.5950138117640789E-017
   9.8900000000000016E-002     6.9643797948987521E-017
  0.10000000000000001          8.6192383701874139E-017
  0.10110000000000002          5.8853889880064250E-017
  0.10220000000000001         -8.6790998221277512E-018
  0.10330000000000003         -8.8875388068386688E-017
  0.10440000000000002         -1.3975304801680356E-016
  0.10550000000000001         -1.2506691019321836E-016
  0.10660000000000003         -3.6511267497842719E-017
  0.10770000000000002          9.4332992485285168E-017
  0.10880000000000001          2.0385425662699783E-016
  0.10990000000000003          2.2464459684580800E-016
  0.11100000000000002          1.2307245996366573E-016
  0.11210000000000001         -7.3040822503008123E-017
  0.11320000000000002         -2.7502483587720524E-016
  0.11430000000000001         -3.6895563492095370E-016
  0.11540000000000003         -2.7451028900344592E-016
  0.11650000000000002          8.8882950300525006E-019
  0.11760000000000001          3.4474649867683219E-016
  0.11870000000000003          5.7781519219754222E-016
  0.11980000000000002          5.3965697071938408E-016
  0.12090000000000001          1.8412507558383679E-016
  0.12200000000000003         -3.6700258549016955E-016
  0.12310000000000001         -8.5238269249276000E-016
  0.12420000000000003         -9.8452403848191029E-016
  0.12530000000000002         -6.0407188945327031E-016
  0.12640000000000001          2.0217240769850250E-016
  0.12750000000000003          1.0934482055716133E-015
  0.12860000000000002          1.6059806618474261E-015
  0.12970000000000001          1.3799887170019416E-015
  0.13080000000000003          3.7759249507384491E-016
  0.13190000000000002         -1.0304152956045857E-015
  0.13300000000000001         -2.1833033020158122E-015
  0.13410000000000000         -2.4302975559093351E-015
  0.13520000000000004         -1.4823764045749437E-015
  0.13630000000000003          3.6706966343385061E-016
  0.13740000000000002          2.2983002480091259E-015
  0.13850000000000001          3.3180720314550164E-015
  0.13960000000000000          2.7687900394233752E-015
  0.14070000000000005          7.4083935889287320E-016
  0.14180000000000004         -1.8577413398499790E-015
  0.14290000000000003         -3.6742419052706455E-015
  0.14400000000000002         -3.5978609981801329E-015
  0.14510000000000001         -1.4310125529201101E-015
  0.14620000000000000          1.8367407069257465E-015
  0.14730000000000004          4.3831843290843995E-015
  0.14840000000000003          4.4577524369773381E-015
  0.14950000000000002          1.4312764083077682E-015
  0.15060000000000001         -3.5762828453594950E-015
  0.15170000000000000         -7.9361024621385925E-015
  0.15280000000000005         -8.6711226000277828E-015
  0.15390000000000004         -4.0886043628177530E-015
  0.15500000000000003          4.9174046940911223E-015
  0.15610000000000002          1.4681218120863328E-014
  0.15720000000000001          2.0042376891968090E-014
  0.15830000000000000          1.6715859173692329E-014
  0.15940000000000004          3.7379310851676702E-015
  0.16050000000000003         -1.5261230154000103E-014
  0.16160000000000002         -3.2828601305609817E-014
  0.16270000000000001         -4.0484554305378850E-014
  0.16380000000000000         -3.2508263913615820E-014
  0.16490000000000005         -9.0340958365117610E-015
  0.16600000000000004          2.3107123525008464E-014
  0.16710000000000003          5.2464475018461971E-014
  0.16820000000000002          6.7294705996017989E-014
  0.16930000000000001          6.0348745236926719E-014
  0.17040000000000000          3.1988627153427147E-014
  0.17150000000000004         -9.8021401572404852E-015
  0.17260000000000003         -5.2513609242829709E-014
  0.17370000000000002         -8.3820369376992291E-014
  0.17480000000000001         -9.5661641813270288E-014
  0.17590000000000000         -8.5864895542626047E-014
  0.17700000000000005         -5.6918997183995921E-014
  0.17810000000000004         -1.3190189707884355E-014
  0.17920000000000003          4.1163893189201287E-014
  0.18030000000000002          1.0176118897708718E-013
  0.18140000000000001          1.6098039955961936E-013
  0.18250000000000000          2.0449361638977360E-013
  0.18360000000000004          2.1078006209052126E-013
  0.18470000000000003          1.5641384828102616E-013
  0.18580000000000002          2.7200416001166783E-014
  0.18690000000000001         -1.6850152095943328E-013
  0.18800000000000000         -3.9080892127319835E-013
  0.18910000000000005         -5.7039914744027050E-013
  0.19020000000000004         -6.2503045171476558E-013
  0.19130000000000003         -4.8793108174777011E-013
  0.19240000000000002         -1.3929199287364722E-013
  0.19350000000000001          3.7144999173785544E-013
  0.19460000000000005          9.2365949293444781E-013
  0.19570000000000004          1.3489297591840264E-012
  0.19680000000000003          1.4760372790293400E-012
  0.19790000000000002          1.1852967580747307E-012
  0.19900000000000001          4.5588745888978368E-013
  0.20010000000000000         -6.0895602770395971E-013
  0.20120000000000005         -1.7877803455048692E-012
  0.20230000000000004         -2.7782764502675858E-012
  0.20340000000000003         -3.2593110707494363E-012
  0.20450000000000002         -2.9664409501657764E-012
  0.20560000000000000         -1.7683226220924113E-012
  0.20670000000000005          2.6887827145616699E-013
  0.20780000000000004          2.8431304334594522E-012
  0.20890000000000003          5.4203180058221674E-012
  0.21000000000000002          7.2964703763424290E-012
  0.21110000000000001          7.7285838999165586E-012
  0.21220000000000000          6.1280265360683653E-012
  0.21330000000000005          2.2850393296203124E-012
  0.21440000000000003         -3.4349187995362891E-012
  0.21550000000000002         -1.0000015403174252E-011
  0.21660000000000001         -1.5797646669303516E-011
  0.21770000000000000         -1.8932131399896062E-011
  0.21880000000000005         -1.7706506561179337E-011
  0.21990000000000004         -1.1186935003085027E-011
  0.22100000000000003          3.0941454143684191E-013
  0.22210000000000002          1.4977608348894234E-011
  0.22320000000000001          2.9671866612499446E-011
  0.22430000000000000          4.0473098864895152E-011
  0.22540000000000004          4.3589687288895383E-011
  0.22650000000000003          3.6389786048928104E-011
  0.22760000000000002          1.8298817966441124E-011
  0.22870000000000001         -8.6944132340208038E-012
  0.22980000000000000         -4.0094068088108335E-011
  0.23090000000000005         -6.9551374540490346E-011
  0.23200000000000004         -9.0006465242997000E-011
  0.23310000000000003         -9.5095578920126523E-011
  0.23420000000000002         -8.0549678787858156E-011
  0.23530000000000001         -4.5323841142859022E-011
  0.23640000000000000          7.7420311202580572E-012
  0.23750000000000004          7.1850528221649375E-011
  0.23860000000000003          1.3680665242504748E-010
  0.23970000000000002          1.9019514241318114E-010
  0.24080000000000001          2.1910665832899946E-010
  0.24190000000000000          2.1227946639244507E-010
  0.24300000000000005          1.6243356117545561E-010
  0.24410000000000004          6.8466915785233230E-011
  0.24520000000000003         -6.2912298508011643E-011
  0.24630000000000002         -2.1657822426483914E-010
  0.24740000000000001         -3.6979435734518063E-010
  0.24850000000000005         -4.9462545907363476E-010
  0.24960000000000004         -5.6183623533422540E-010
  0.25070000000000003         -5.4580606389143792E-010
  0.25180000000000002         -4.2968600702457938E-010
  0.25290000000000001         -2.0986088653624469E-010
  0.25400000000000000          1.0117530848157407E-010
  0.25510000000000005          4.7417120881637376E-010
  0.25620000000000004          8.6493473039537518E-010
  0.25730000000000003          1.2184105282849860E-009
  0.25840000000000002          1.4744571900358169E-009
  0.25950000000000001          1.5745890191970089E-009
  0.26060000000000005          1.4689951114989308E-009
  0.26170000000000004          1.1233638612757550E-009
  0.26280000000000003          5.2530538138734796E-010
  0.26390000000000002         -3.0967612197390724E-010
  0.26500000000000001         -1.3327964820733363E-009
  0.26610000000000000         -2.4577060475527057E-009
  0.26720000000000005         -3.5584164593795076E-009
  0.26830000000000004         -4.4711688767645396E-009
  0.26940000000000003         -5.0022825104341842E-009
  0.27050000000000002         -4.9438129005456946E-009
  0.27160000000000001         -4.0978517033996416E-009
  0.27270000000000005         -2.3086503149391180E-009
  0.27380000000000004          5.0028772795075201E-010
  0.27490000000000003          4.2888858925490346E-009
  0.27600000000000002          8.8687935028954020E-009
  0.27710000000000001          1.3882976768001192E-008
  0.27820000000000000          1.8800595173989313E-008
  0.27930000000000005          2.2928201599183652E-008
  0.28040000000000004          2.5434652984275523E-008
  0.28150000000000003          2.5383741883718312E-008
  0.28260000000000002          2.1766217488700702E-008
  0.28370000000000001          1.3522296464301761E-008
  0.28480000000000005         -4.5312254417816158E-010
  0.28590000000000004         -2.1327906949815671E-008
  0.28700000000000003         -5.0375416551048771E-008
  0.28810000000000002         -8.9042801283667236E-008
  0.28920000000000001         -1.3904407256855364E-007
  0.29030000000000000         -2.0247729938456571E-007
  0.29140000000000005         -2.8196617535303187E-007
  0.29250000000000004         -3.8082724262716284E-007
  0.29360000000000003         -5.0326428180209344E-007
  0.29470000000000002         -6.5459048530186872E-007
  0.29580000000000001         -8.4147774800922670E-007
  0.29690000000000005         -1.0722315472029591E-006
  0.29800000000000004         -1.3570896191636843E-006
  0.29910000000000003         -1.7085462990069689E-006
  0.30020000000000002         -2.1417080452177121E-006
  0.30130000000000001         -2.6746943408319712E-006
  0.30240000000000000         -3.3290994679091610E-006
  0.30350000000000005         -4.1305404338181662E-006
  0.30460000000000004         -5.1093098503692491E-006
  0.30570000000000003         -6.3011517408750585E-006
  0.30680000000000002         -7.7481638838491278E-006
  0.30790000000000001         -9.4998202810611459E-006
  0.30900000000000005         -1.1614120893266065E-005
  0.31010000000000004         -1.4158827998097165E-005
  0.31120000000000003         -1.7212805181425610E-005
  0.31230000000000002         -2.0867429559521717E-005
  0.31340000000000001         -2.5228105305857163E-005
  0.31450000000000006         -3.0415862556472732E-005
  0.31560000000000005         -3.6569099839027299E-005
  0.31670000000000004         -4.3845404655714289E-005
  0.31780000000000003         -5.2423528906413969E-005
  0.31890000000000002         -6.2505434016841115E-005
  0.32000000000000001         -7.4318408788530779E-005
  0.32110000000000005         -8.8117231606045564E-005
  0.32220000000000004         -1.0418620384243192E-004
  0.32330000000000003         -1.2284112428529560E-004
  0.32440000000000002         -1.4443108964309648E-004
  0.32550000000000001         -1.6934001797841796E-004
  0.32660000000000006         -1.9798783497894010E-004
  0.32770000000000005         -2.3083138091055220E-004
  0.32880000000000004         -2.6836472562820964E-004
  0.32990000000000003         -3.1111892208485507E-004
  0.33100000000000002         -3.5966096444518624E-004
  0.33210000000000001         -4.1459213385780784E-004
  0.33320000000000005         -4.7654541953047111E-004
  0.33430000000000004         -5.4618151021350791E-004
  0.33540000000000003         -6.2418436160303491E-004
  0.33650000000000002         -7.1125483073280951E-004
  0.33760000000000001         -8.0810352812791706E-004
  0.33870000000000006         -9.1544218124920340E-004
  0.33980000000000005         -1.0339734815704373E-003
  0.34090000000000004         -1.1643794401940380E-003
  0.34200000000000003         -1.3073084871607389E-003
  0.34310000000000002         -1.4633602657822783E-003
  0.34420000000000001         -1.6330699037529833E-003
  0.34530000000000005         -1.8168899558371888E-003
  0.34640000000000004         -2.0151709549198491E-003
  0.34750000000000003         -2.2281416151912242E-003
  0.34860000000000002         -2.4558869815345741E-003
  0.34970000000000001         -2.6983277591931167E-003
  0.35080000000000006         -2.9551990043012026E-003
  0.35190000000000005         -3.2260283836904346E-003
  0.35300000000000004         -3.5101161012330464E-003
  0.35410000000000003         -3.8065152782486367E-003
  0.35520000000000002         -4.1140145255017142E-003
  0.35630000000000001         -4.4311238413378053E-003
  0.35740000000000005         -4.7560599622885726E-003
  0.35850000000000004         -5.0867386915607517E-003
  0.35960000000000003         -5.4207681388181144E-003
  0.36070000000000002         -5.7554490148799264E-003
  0.36180000000000001         -6.0877763938573482E-003
  0.36290000000000006         -6.4144518289183071E-003
  0.36400000000000005         -6.7318976657373747E-003
  0.36510000000000004         -7.0362782111622803E-003
  0.36620000000000003         -7.3235298572467472E-003
  0.36730000000000002         -7.5893930843085678E-003
  0.36840000000000006         -7.8294548230453329E-003
  0.36950000000000005         -8.0391978128700088E-003
  0.37060000000000004         -8.2140514114861941E-003
  0.37170000000000003         -8.3494505794899712E-003
  0.37280000000000002         -8.4409033998582919E-003
  0.37390000000000001         -8.4840571939764093E-003
  0.37500000000000006         -8.4747712955468620E-003
  0.37610000000000005         -8.4091869697521665E-003
  0.37720000000000004         -8.2838029240586940E-003
  0.37830000000000003         -8.0955492839787004E-003
  0.37940000000000002         -7.8418542997375600E-003
  0.38050000000000006         -7.5207168719187492E-003
  0.38160000000000005         -7.1307689140260033E-003
  0.38270000000000004         -6.6713292938107979E-003
  0.38380000000000003         -6.1424553168032796E-003
  0.38490000000000002         -5.5449791714320676E-003
  0.38600000000000001         -4.8805394762617416E-003
  0.38710000000000000         -4.1515998642116915E-003
  0.38819999999999999         -3.3614546370197610E-003
  0.38930000000000009         -2.5142206919866444E-003
  0.39040000000000008         -1.6148173185321405E-003
  0.39150000000000007         -6.6893084775190370E-004
  0.39260000000000006          3.1703313362259746E-004
  0.39370000000000005          1.3360101956880668E-003
  0.39480000000000004          2.3803500799336528E-003
  0.39590000000000003          3.4419014504579277E-003
  0.39700000000000002          4.5121067056767159E-003
  0.39810000000000001          5.5821073603375430E-003
  0.39920000000000000          6.6428544313888232E-003
  0.40029999999999999          7.6852236623389403E-003
  0.40140000000000009          8.7001340894709376E-003
  0.40250000000000008          9.6786754011628541E-003
  0.40360000000000007          1.0612221031531508E-002
  0.40470000000000006          1.1492547094062271E-002
  0.40580000000000005          1.2311944798639250E-002
  0.40690000000000004          1.3063320187608283E-002
  0.40800000000000003          1.3740290041891881E-002
  0.40910000000000002          1.4337270518409823E-002
  0.41020000000000001          1.4849541435547687E-002
  0.41130000000000000          1.5273308135082363E-002
  0.41239999999999999          1.5605745599004808E-002
  0.41350000000000009          1.5845024845244471E-002
  0.41460000000000008          1.5990322153625152E-002
  0.41570000000000007          1.6041826857421084E-002
  0.41680000000000006          1.6000709473331518E-002
  0.41790000000000005          1.5869098707678365E-002
  0.41900000000000004          1.5650025423388059E-002
  0.42010000000000003          1.5347372854107661E-002
  0.42120000000000002          1.4965795396994910E-002
  0.42230000000000001          1.4510642657369382E-002
  0.42340000000000000          1.3987865570149213E-002
  0.42449999999999999          1.3403926428407797E-002
  0.42560000000000009          1.2765699594801797E-002
  0.42670000000000008          1.2080369314150345E-002
  0.42780000000000007          1.1355322773939178E-002
  0.42890000000000006          1.0598046297357982E-002
  0.43000000000000005          9.8160276829370573E-003
  0.43110000000000004          9.0166634865598144E-003
  0.43220000000000003          8.2071645148776191E-003
  0.43330000000000002          7.3944815913276401E-003
  0.43440000000000001          6.5852273371571285E-003
  0.43550000000000000          5.7856119919831948E-003
  0.43659999999999999          5.0013851715456463E-003
  0.43770000000000009          4.2377937122090887E-003
  0.43880000000000008          3.4995462192506988E-003
  0.43990000000000007          2.7907880897523403E-003
  0.44100000000000006          2.1150895504077243E-003
  0.44210000000000005          1.4754401642469600E-003
  0.44320000000000004          8.7425218148566054E-004
  0.44430000000000003          3.1337183234427429E-004
  0.44540000000000002         -2.0590217678050066E-004
  0.44650000000000001         -6.8279354241636433E-004
  0.44760000000000000         -1.1170160824127097E-003
  0.44869999999999999         -1.5087363247491567E-003
  0.44980000000000009         -1.8585326542093835E-003
  0.45090000000000008         -2.1673524099741215E-003
  0.45200000000000007         -2.4364684715899782E-003
  0.45310000000000006         -2.6674350168424364E-003
  0.45420000000000005         -2.8620429763797136E-003
  0.45530000000000004         -3.0222746461471516E-003
  0.45640000000000003         -3.1502602919748382E-003
  0.45750000000000002         -3.2482359233832209E-003
  0.45860000000000001         -3.3185049728926986E-003
  0.45970000000000000         -3.3634036912799353E-003
  0.46079999999999999         -3.3852712395367112E-003
  0.46190000000000009         -3.3864212348113185E-003
  0.46300000000000008         -3.3691184544899951E-003
  0.46410000000000007         -3.3355562361951636E-003
  0.46520000000000006         -3.2878358125307209E-003
  0.46630000000000005         -3.2279525027755370E-003
  0.46740000000000004         -3.1577819500449075E-003
  0.46850000000000003         -3.0790738012292517E-003
  0.46960000000000002         -2.9934464182333658E-003
  0.47070000000000001         -2.9023840955656440E-003
  0.47180000000000000         -2.8072385438968044E-003
  0.47289999999999999         -2.7092284650677484E-003
  0.47400000000000009         -2.6094423241442067E-003
  0.47510000000000008         -2.5088423063720135E-003
  0.47620000000000007         -2.4082713759434860E-003
  0.47730000000000006         -2.3084598451201836E-003
  0.47840000000000005         -2.2100342055264171E-003