 -0.12000000000000000          0.0000000000000000     
 -0.11889999999999999          0.0000000000000000     
 -0.11780000000000000          0.0000000000000000     
 -0.11670000000000000          0.0000000000000000     
 -0.11559999999999999          0.0000000000000000     
 -0.11449999999999999          0.0000000000000000     
 -0.11340000000000000          0.0000000000000000     
 -0.11230000000000000          0.0000000000000000     
 -0.11119999999999999          0.0000000000000000     
 -0.11009999999999999          0.0000000000000000     
 -0.10900000000000000          0.0000000000000000     
 -0.10790000000000000          0.0000000000000000     
 -0.10679999999999999          0.0000000000000000     
 -0.10569999999999999          0.0000000000000000     
 -0.10460000000000000          0.0000000000000000     
 -0.10349999999999999          0.0000000000000000     
 -0.10239999999999999          0.0000000000000000     
 -0.10130000000000000          0.0000000000000000     
 -0.10020000000000000          0.0000000000000000     
  -9.9099999999999994E-002     0.0000000000000000     
  -9.7999999999999990E-002     0.0000000000000000     
  -9.6899999999999986E-002     0.0000000000000000     
  -9.5799999999999996E-002     0.0000000000000000     
  -9.4699999999999993E-002     0.0000000000000000     
  -9.3599999999999989E-002     0.0000000000000000     
  -9.2499999999999999E-002     0.0000000000000000     
  -9.1399999999999995E-002     0.0000000000000000     
  -9.0299999999999991E-002     0.0000000000000000     
  -8.9200000000000002E-002     0.0000000000000000     
  -8.8099999999999984E-002     0.0000000000000000     
  -8.6999999999999994E-002     0.0000000000000000     
  -8.5899999999999990E-002     0.0000000000000000     
  -8.4799999999999986E-002     0.0000000000000000     
  -8.3699999999999997E-002     0.0000000000000000     
  -8.2599999999999993E-002     0.0000000000000000     
  -8.1499999999999989E-002     0.0000000000000000     
  -8.0399999999999999E-002     0.0000000000000000     
  -7.9299999999999995E-002     0.0000000000000000     
  -7.8199999999999992E-002     0.0000000000000000     
  -7.7100000000000002E-002     0.0000000000000000     
  -7.5999999999999984E-002     0.0000000000000000     
  -7.4899999999999994E-002     0.0000000000000000     
  -7.3799999999999991E-002     0.0000000000000000     
  -7.2699999999999987E-002     0.0000000000000000     
  -7.1599999999999997E-002     0.0000000000000000     
  -7.0499999999999993E-002     0.0000000000000000     
  -6.9399999999999989E-002     0.0000000000000000     
  -6.8300000000000000E-002     0.0000000000000000     
  -6.7199999999999996E-002     0.0000000000000000     
  -6.6099999999999992E-002     0.0000000000000000     
  -6.5000000000000002E-002     0.0000000000000000     
  -6.3899999999999985E-002     0.0000000000000000     
  -6.2799999999999995E-002     0.0000000000000000     
  -6.1699999999999991E-002     0.0000000000000000     
  -6.0599999999999994E-002     0.0000000000000000     
  -5.9499999999999990E-002     0.0000000000000000     
  -5.8399999999999994E-002     0.0000000000000000     
  -5.7299999999999990E-002     0.0000000000000000     
  -5.6199999999999986E-002     0.0000000000000000     
  -5.5099999999999996E-002     0.0000000000000000     
  -5.3999999999999992E-002     0.0000000000000000     
  -5.2899999999999989E-002     0.0000000000000000     
  -5.1799999999999985E-002     0.0000000000000000     
  -5.0699999999999995E-002     0.0000000000000000     
  -4.9599999999999991E-002     0.0000000000000000     
  -4.8499999999999988E-002     0.0000000000000000     
  -4.7399999999999998E-002     0.0000000000000000     
  -4.6299999999999994E-002     0.0000000000000000     
  -4.5199999999999990E-002     0.0000000000000000     
  -4.4099999999999986E-002     0.0000000000000000     
  -4.2999999999999997E-002     0.0000000000000000     
  -4.1899999999999993E-002     0.0000000000000000     
  -4.0799999999999989E-002     0.0000000000000000     
  -3.9699999999999985E-002     0.0000000000000000     
  -3.8599999999999995E-002     0.0000000000000000     
  -3.7499999999999992E-002     0.0000000000000000     
  -3.6399999999999988E-002     0.0000000000000000     
  -3.5299999999999984E-002     0.0000000000000000     
  -3.4199999999999994E-002     0.0000000000000000     
  -3.3099999999999991E-002     0.0000000000000000     
  -3.1999999999999987E-002     0.0000000000000000     
  -3.0899999999999997E-002     0.0000000000000000     
  -2.9799999999999993E-002     0.0000000000000000     
  -2.8699999999999989E-002     0.0000000000000000     
  -2.7599999999999986E-002     0.0000000000000000     
  -2.6499999999999996E-002     0.0000000000000000     
  -2.5399999999999992E-002     0.0000000000000000     
  -2.4299999999999988E-002     0.0000000000000000     
  -2.3199999999999985E-002     0.0000000000000000     
  -2.2099999999999995E-002     0.0000000000000000     
  -2.0999999999999991E-002     0.0000000000000000     
  -1.9899999999999987E-002     0.0000000000000000     
  -1.8799999999999983E-002     0.0000000000000000     
  -1.7699999999999994E-002     0.0000000000000000     
  -1.6599999999999990E-002     0.0000000000000000     
  -1.5499999999999986E-002     0.0000000000000000     
  -1.4399999999999996E-002     0.0000000000000000     
  -1.3299999999999992E-002     0.0000000000000000     
  -1.2199999999999989E-002     0.0000000000000000     
  -1.1099999999999985E-002     0.0000000000000000     
  -9.9999999999999950E-003     2.4375284398759955E-051
  -8.8999999999999913E-003     1.1434507971373272E-046
  -7.7999999999999875E-003     4.5735444578375148E-046
  -6.6999999999999837E-003     4.5745088441666185E-046
  -5.5999999999999939E-003    -8.1214205527926819E-046
  -4.4999999999999901E-003    -3.1107557107227816E-045
  -3.3999999999999864E-003    -4.4711906133823521E-045
  -2.2999999999999826E-003    -2.3659883255543759E-045
  -1.1999999999999927E-003     6.5705570328963757E-045
  -9.9999999999988987E-005     1.9204102831329552E-044
   1.0000000000000148E-003     3.3496796304407584E-044
   2.1000000000000185E-003     3.9547419556692715E-044
   3.2000000000000084E-003     1.3260656170442227E-044
   4.3000000000000121E-003    -6.9037533027100048E-044
   5.4000000000000159E-003    -2.0851560067366043E-043
   6.5000000000000058E-003    -3.4880855897733836E-043
   7.6000000000000234E-003    -3.3917338552807224E-043
   8.7000000000000133E-003     4.7760716208094379E-044
   9.8000000000000032E-003     9.8418988035311199E-043
   1.0900000000000021E-002     2.3098944130866081E-042
   1.2000000000000011E-002     3.2189443400657594E-042
   1.3100000000000001E-002     2.1476177171253124E-042
   1.4200000000000018E-002    -2.7103908763594892E-042
   1.5300000000000008E-002    -1.1893480494389378E-041
   1.6400000000000026E-002    -2.2337130623830700E-041
   1.7500000000000016E-002    -2.5421077648326616E-041
   1.8600000000000005E-002    -7.8793729291243202E-042
   1.9700000000000023E-002     4.1497103401175398E-041
   2.0800000000000013E-002     1.1819370108486263E-040
   2.1900000000000003E-002     1.8552030839813490E-040
   2.3000000000000020E-002     1.6752275175942456E-040
   2.4100000000000010E-002    -3.0045659835001431E-041
   2.5200000000000000E-002    -4.5507155417475023E-040
   2.6300000000000018E-002    -1.0066066212576257E-039
   2.7400000000000008E-002    -1.3426103004769056E-039
   2.8500000000000025E-002    -8.9458531896687317E-040
   2.9600000000000015E-002     8.9609762459639038E-040
   3.0700000000000005E-002     4.0698467349831485E-039
   3.1800000000000023E-002     7.5021389955523638E-039
   3.2900000000000013E-002     8.5278502829931834E-039
   3.4000000000000002E-002     3.4729527906264477E-039
   3.5100000000000020E-002    -1.0344700404222112E-038
   3.6200000000000010E-002    -3.1225582403355596E-038
   3.7300000000000028E-002    -4.9661225522804616E-038
   3.8400000000000017E-002    -4.7711716214878587E-038
   3.9500000000000007E-002    -4.7126590975498128E-039
   4.0600000000000025E-002     8.8705282640333873E-038
   4.1700000000000015E-002     2.1108045057116224E-037
   4.2800000000000005E-002     2.9524332217599080E-037
   4.3900000000000022E-002     2.3484550984114254E-037
   4.5000000000000012E-002    -7.1325553356609796E-038
   4.6100000000000002E-002    -6.3469736556285177E-037
   4.7200000000000020E-002    -1.2787375054472240E-036
   4.8300000000000010E-002    -1.5906360782524507E-036
   4.9400000000000027E-002    -1.0081919918112268E-036
   5.0500000000000017E-002     8.9622076983548555E-037
   5.1600000000000007E-002     3.9655964642451598E-036
   5.2700000000000025E-002     7.0278628577178337E-036
   5.3800000000000014E-002     7.8256917016268319E-036
   5.4900000000000004E-002     3.6855573282157166E-036
   5.6000000000000022E-002    -6.9049449709388987E-036
   5.7100000000000012E-002    -2.2161985053400144E-035
   5.8200000000000002E-002    -3.5376213150010069E-035
   5.9300000000000019E-002    -3.5402991428616682E-035
   6.0400000000000009E-002    -1.0734881924973897E-035
   6.1500000000000027E-002     4.2708813410316151E-035
   6.2600000000000017E-002     1.1246584708677753E-034
   6.3700000000000007E-002     1.6438037636928464E-034
   6.4800000000000024E-002     1.4824196658122520E-034
   6.5900000000000014E-002     1.9033519130689210E-035
   6.7000000000000004E-002    -2.2832595568291828E-034
   6.8100000000000022E-002    -5.2376151407742276E-034
   6.9200000000000012E-002    -7.0980313613049400E-034
   7.0300000000000029E-002    -5.7827867808674931E-034
   7.1400000000000019E-002     3.1238040425664088E-035
   7.2500000000000009E-002     1.0899300103886958E-033
   7.3600000000000027E-002     2.2562874074375703E-033
   7.4700000000000016E-002     2.8647583125943759E-033
   7.5800000000000006E-002     2.1155263268785922E-033
   7.6900000000000024E-002    -5.1228741809167375E-034
   7.8000000000000014E-002    -4.7300166395320963E-033
   7.9100000000000004E-002    -9.0470313603088554E-033
   8.0200000000000021E-002    -1.0861202731280045E-032
   8.1300000000000011E-002    -7.3075007852949471E-033
   8.2400000000000029E-002     3.1505355526405001E-033
   8.3500000000000019E-002     1.8876364681776473E-032
   8.4600000000000009E-002     3.3934615280428181E-032
   8.5700000000000026E-002     3.8847610776259686E-032
   8.6800000000000016E-002     2.3995329036102998E-032
   8.7900000000000006E-002    -1.4706571242276990E-032
   8.9000000000000024E-002    -6.9830094705286734E-032
   9.0100000000000013E-002    -1.1955774371066898E-031
   9.1200000000000003E-002    -1.3154492952821569E-031
   9.2300000000000021E-002    -7.5368451674153738E-032
   9.3400000000000011E-002     5.8571653608399836E-032
   9.4500000000000028E-002     2.4091178623562118E-031
   9.5600000000000018E-002     3.9698167450440348E-031
   9.6700000000000008E-002     4.2285892471394381E-031
   9.7800000000000026E-002     2.2754597564593621E-031
   9.8900000000000016E-002    -2.0796801988863589E-031
  0.10000000000000001         -7.7892434510233327E-031
  0.10110000000000002         -1.2458040038788953E-030
  0.10220000000000001         -1.2929659509281606E-030
  0.10330000000000003         -6.6209164222856481E-031
  0.10440000000000002          6.7372881003280508E-031
  0.10550000000000001          2.3705152139061216E-030
  0.10660000000000003          3.7042524586306175E-030
  0.10770000000000002          3.7654991673200840E-030
  0.10880000000000001          1.8564671983810422E-030
  0.10990000000000003         -2.0228885833622731E-030
  0.11100000000000002         -6.8194994010362786E-030
  0.11210000000000001         -1.0461047959111445E-029
  0.11320000000000002         -1.0454121667624810E-029
  0.11430000000000001         -5.0019612307754834E-030
  0.11540000000000003          5.7048221359666619E-030
  0.11650000000000002          1.8630800535879527E-029
  0.11760000000000001          2.8134144232721718E-029
  0.11870000000000003          2.7690886348034783E-029
  0.11980000000000002          1.2887187705674972E-029
  0.12090000000000001         -1.5310484971728069E-029
  0.12200000000000003         -4.8596236844345181E-029
  0.12310000000000001         -7.2294829453372060E-029
  0.12420000000000003         -7.0068044412007569E-029
  0.12530000000000002         -3.1569342870693745E-029
  0.12640000000000001          3.9624093971607022E-029
  0.12750000000000003          1.2178008566950036E-028
  0.12860000000000002          1.7825893743722049E-028
  0.12970000000000001          1.6976858134357703E-028
  0.13080000000000003          7.3164086774242397E-029
  0.13190000000000002         -1.0007105666174932E-028
  0.13300000000000001         -2.9521932156150398E-028
  0.13410000000000000         -4.2405705984662816E-028
  0.13520000000000004         -3.9548810385087921E-028
  0.13630000000000003         -1.6006517967764943E-028
  0.13740000000000002          2.4849517013829211E-028
  0.13850000000000001          6.9693464825983195E-028
  0.13960000000000000          9.7942432449323027E-028
  0.14070000000000005          8.9142399652168744E-028
  0.14180000000000004          3.3177233816576258E-028
  0.14290000000000003         -6.0704778799832707E-028
  0.14400000000000002         -1.6100296125958986E-027
  0.14510000000000001         -2.2099974970077082E-027
  0.14620000000000000         -1.9599592966775678E-027
  0.14730000000000004         -6.6055580849393739E-028
  0.14840000000000003          1.4491694109623099E-027
  0.14950000000000002          3.6453767397470115E-027
  0.15060000000000001          4.8935598169099571E-027
  0.15170000000000000          4.2385866120560341E-027
  0.15280000000000005          1.2982597934467137E-027
  0.15390000000000004         -3.3432584620007290E-027
  0.15500000000000003         -8.0698227003440130E-027
  0.15610000000000002         -1.0644161619262802E-026
  0.15720000000000001         -9.0645062142942821E-027
  0.15830000000000000         -2.6091164815685754E-027
  0.15940000000000004          7.3698256121097612E-027
  0.16050000000000003          1.7371624608868922E-026
  0.16160000000000002          2.2674371504956362E-026
  0.16270000000000001          1.9161006032830269E-026
  0.16380000000000000          5.4753204519462331E-027
  0.16490000000000005         -1.5408866909486640E-026
  0.16600000000000004         -3.6146154752971190E-026
  0.16710000000000003         -4.7028437614418746E-026
  0.16820000000000002         -3.9763677520816651E-026
  0.16930000000000001         -1.1814327615587379E-026
  0.17040000000000000          3.0567891361687367E-026
  0.17150000000000004          7.2452127437772754E-026
  0.17260000000000003          9.4425176896950802E-026
  0.17370000000000002          8.0190852135590196E-026
  0.17480000000000001          2.5079328206948847E-026
  0.17590000000000000         -5.8221035144799909E-026
  0.17700000000000005         -1.4022632228660294E-025
  0.17810000000000004         -1.8316269008372000E-025
  0.17920000000000003         -1.5585948334686389E-025
  0.18030000000000002         -5.0038237742995575E-026
  0.18140000000000001          1.0912494079697317E-025
  0.18250000000000000          2.6473360792446058E-025
  0.18360000000000004          3.4500276307445216E-025
  0.18470000000000003          2.9182393122792632E-025
  0.18580000000000002          9.1305418570349574E-026
  0.18690000000000001         -2.0718976776022912E-025
  0.18800000000000000         -4.9554831389223273E-025
  0.18910000000000005         -6.3959253165762493E-025
  0.19020000000000004         -5.3295776214599252E-025
  0.19130000000000003         -1.5348331925758899E-025
  0.19240000000000002          4.0295275183040322E-025
  0.19350000000000001          9.3290677101318526E-025
  0.19460000000000005          1.1877236548192090E-024
  0.19570000000000004          9.7379613678618467E-025
  0.19680000000000003          2.5568140794000888E-025
  0.19790000000000002         -7.8386683477918455E-025
  0.19900000000000001         -1.7658761848710839E-024
  0.20010000000000000         -2.2315519705283055E-024
  0.20120000000000005         -1.8262779069639897E-024
  0.20230000000000004         -4.8683132723305387E-025
  0.20340000000000003          1.4511193307943340E-024
  0.20450000000000002          3.2943818410924647E-024
  0.20560000000000000          4.2033165805835905E-024
  0.20670000000000005          3.5233295676287235E-024
  0.20780000000000004          1.1213739616162716E-024
  0.20890000000000003         -2.4196939037720142E-024
  0.21000000000000002         -5.8705560656373467E-024
  0.21110000000000001         -7.7247027107840527E-024
  0.21220000000000000         -6.7808054917011007E-024
  0.21330000000000005         -2.7367464038781603E-024
  0.21440000000000003          3.4603190098024331E-024
  0.21550000000000002          9.7186602902896764E-024
  0.21660000000000001          1.3424456404987291E-023
  0.21770000000000000          1.2434849160461477E-023
  0.21880000000000005          6.0990038583181497E-024
  0.21990000000000004         -4.1267562947329142E-024
  0.22100000000000003         -1.4827306637639139E-023
  0.22210000000000002         -2.1648795690260762E-023
  0.22320000000000001         -2.0945733258914653E-023
  0.22430000000000000         -1.1484493887773132E-023
  0.22540000000000004          4.5184804352791281E-024
  0.22650000000000003          2.1616710532442365E-023
  0.22760000000000002          3.2790396444942676E-023
  0.22870000000000001          3.2134942159339099E-023
  0.22980000000000000          1.7641004684001628E-023
  0.23090000000000005         -7.1186534629987268E-024
  0.23200000000000004         -3.3363982635099372E-023
  0.23310000000000003         -4.9828585344693657E-023
  0.23420000000000002         -4.7155139480994834E-023
  0.23530000000000001         -2.2420295337067427E-023
  0.23640000000000000          1.8150265846766618E-023
  0.23750000000000004          5.9856861417442331E-023
  0.23860000000000003          8.4051392133708298E-023
  0.23970000000000002          7.5412098010796441E-023
  0.24080000000000001          2.9438788422229671E-023
  0.24190000000000000         -4.3010879520099783E-023
  0.24300000000000005         -1.1675518699701622E-022
  0.24410000000000004         -1.5969890167125400E-022
  0.24520000000000003         -1.4489449389840050E-022
  0.24630000000000002         -6.3189297091268449E-023
  0.24740000000000001          6.8723898750152731E-023
  0.24850000000000005          2.0921007512492971E-022
  0.24960000000000004          3.0309172051124189E-022
  0.25070000000000003          3.0106053658796473E-022
  0.25180000000000002          1.8081683882113330E-022
  0.25290000000000001         -3.8302015453819975E-023
  0.25400000000000000         -2.9438809021814636E-022
  0.25510000000000005         -4.9871523937165581E-022
  0.25620000000000004         -5.6498419867701378E-022
  0.25730000000000003         -4.4286621926859124E-022
  0.25840000000000002         -1.4332708286974814E-022
  0.25950000000000001          2.5561156372243945E-022
  0.26060000000000005          6.2805734605698133E-022
  0.26170000000000004          8.4065237423602928E-022
  0.26280000000000003          8.0142276905062921E-022
  0.26390000000000002          4.9902295975037409E-022
  0.26500000000000001          1.5583283540010894E-023
  0.26610000000000000         -4.9532913685651783E-022
  0.26720000000000005         -8.6112285550932686E-022
  0.26830000000000004         -9.5540978867285702E-022
  0.26940000000000003         -7.5082611796842274E-022
  0.27050000000000002         -3.3598543598254354E-022
  0.27160000000000001          1.1498868461554544E-022
  0.27270000000000005          4.1327392565037064E-022
  0.27380000000000004          4.4091398925261227E-022
  0.27490000000000003          2.1506031344536664E-022
  0.27600000000000002         -1.0177867211096740E-022
  0.27710000000000001         -2.5992494667953590E-022
  0.27820000000000000         -3.5730075022919805E-023
  0.27930000000000005          6.4092880473699608E-022
  0.28040000000000004          1.6004738768038373E-021
  0.28150000000000003          2.4381805717767522E-021
  0.28260000000000002          2.6301074448868525E-021
  0.28370000000000001          1.7374748638111112E-021
  0.28480000000000005         -3.6647046953864338E-022
  0.28590000000000004         -3.3375939731245756E-021
  0.28700000000000003         -6.3528881421687536E-021
  0.28810000000000002         -8.2933505211282851E-021
  0.28920000000000001         -8.0902636791289666E-021
  0.29030000000000000         -5.1376668555428459E-021
  0.29140000000000005          3.7114713962602835E-022
  0.29250000000000004          7.3236473817954029E-021
  0.29360000000000003          1.3869810605651703E-020
  0.29470000000000002          1.7894373263393188E-020
  0.29580000000000001          1.7661208061749591E-020
  0.29690000000000005          1.2432216971232538E-020
  0.29800000000000004          2.8454452801476220E-021
  0.29910000000000003         -9.1047269701034301E-021
  0.30020000000000002         -2.0520789999902536E-020
  0.30130000000000001         -2.8377068796012726E-020
  0.30240000000000000         -3.0383949057077080E-020
  0.30350000000000005         -2.5661661069236110E-020
  0.30460000000000004         -1.4994756203573670E-020
  0.30570000000000003         -5.7645928783332310E-022
  0.30680000000000002          1.4667559024130292E-020
  0.30790000000000001          2.7929624710566860E-020
  0.30900000000000005          3.7227705345002963E-020
  0.31010000000000004          4.1703933767020091E-020
  0.31120000000000003          4.1410477293044081E-020
  0.31230000000000002          3.6699699603328634E-020
  0.31340000000000001          2.7529913469959866E-020
  0.31450000000000006          1.3083336822732875E-020
  0.31560000000000005         -7.9818243523527078E-021
  0.31670000000000004         -3.6552856045666835E-020
  0.31780000000000003         -7.1584701879627637E-020
  0.31890000000000002         -1.0865079569497386E-019
  0.32000000000000001         -1.3921629603910433E-019
  0.32110000000000005         -1.5127195724787960E-019
  0.32220000000000004         -1.3166782452225749E-019
  0.32330000000000003         -6.9995307908411932E-020
  0.32440000000000002          3.6698331020567385E-020
  0.32550000000000001          1.7956662346567701E-019
  0.32660000000000006          3.3545896438410543E-019
  0.32770000000000005          4.6765154803374573E-019
  0.32880000000000004          5.3076266064821548E-019
  0.32990000000000003          4.7999140331851040E-019
  0.33100000000000002          2.8373744770474945E-019
  0.33210000000000001         -6.2540096347354169E-020
  0.33320000000000005         -5.2446594415417072E-019
  0.33430000000000004         -1.0228486504891447E-018
  0.33540000000000003         -1.4376837668366199E-018
  0.33650000000000002         -1.6249600729305571E-018
  0.33760000000000001         -1.4468650926739327E-018
  0.33870000000000006         -8.1248226116666075E-019
  0.33980000000000005          2.7819044495237546E-019
  0.34090000000000004          1.6981449781638107E-018
  0.34200000000000003          3.1789708223926677E-018
  0.34310000000000002          4.3314175125677543E-018
  0.34420000000000001          4.7093089689681575E-018
  0.34530000000000005          3.9156530281611769E-018
  0.34640000000000004          1.7365118210524290E-018
  0.34750000000000003         -1.7261760776289030E-018
  0.34860000000000002         -5.9629510086819156E-018
  0.34970000000000001         -1.0049964560900030E-017
  0.35080000000000006         -1.2761858497627479E-017
  0.35190000000000005         -1.2816586943385966E-017
  0.35300000000000004         -9.2291203080585350E-018
  0.35410000000000003         -1.7094806346293882E-018
  0.35520000000000002          8.9968669945433638E-018
  0.35630000000000001          2.0948414826740562E-017
  0.35740000000000005          3.1139874862212824E-017
  0.35850000000000004          3.5994096369888279E-017
  0.35960000000000003          3.2197898541769755E-017
  0.36070000000000002          1.7759208785879309E-017
  0.36180000000000001         -6.9449868708029184E-018
  0.36290000000000006         -3.8438156783190921E-017
  0.36400000000000005         -7.0053761842166463E-017
  0.36510000000000004         -9.2733332185288154E-017
  0.36620000000000003         -9.6790378112010009E-017
  0.36730000000000002         -7.4466609195743919E-017
  0.36840000000000006         -2.2821637222893435E-017
  0.36950000000000005          5.3752753863348695E-017
  0.37060000000000004          1.4223457615803475E-016
  0.37170000000000003          2.2166941524966478E-016
  0.37280000000000002          2.6634262813920746E-016
  0.37390000000000001          2.5137081901748610E-016
  0.37500000000000006          1.5996440300932872E-016
  0.37610000000000005         -9.0999541937377582E-018
  0.37720000000000004         -2.3579842214911461E-016
  0.37830000000000003         -4.7713821531509562E-016
  0.37940000000000002         -6.7118621500013929E-016
  0.38050000000000006         -7.4765397550870406E-016
  0.38160000000000005         -6.4432064564622792E-016
  0.38270000000000004         -3.2675771369203532E-016
  0.38380000000000003          1.9289666894107419E-016
  0.38490000000000002          8.4348842719351897E-016
  0.38600000000000001          1.4941342211560945E-015
  0.38710000000000000          1.9692658316219948E-015
  0.38819999999999999          2.0805531516803058E-015
  0.38930000000000009          1.6727219110839447E-015
  0.39040000000000008          6.7567058162318770E-016
  0.39150000000000007         -8.4876335879181968E-016
  0.39260000000000006         -2.6793256810736946E-015
  0.39370000000000005         -4.4404568748488173E-015
  0.39480000000000004         -5.6490469996088136E-015
  0.39590000000000003         -5.8039900454549131E-015
  0.39700000000000002         -4.5091066096024948E-015
  0.39810000000000001         -1.6085951171277080E-015
  0.39920000000000000          2.6954136786032305E-015
  0.40029999999999999          7.7784332134040286E-015
  0.40140000000000009          1.2614972403434660E-014
  0.40250000000000008          1.5906828933939420E-014
  0.40360000000000007          1.6319359176539910E-014
  0.40470000000000006          1.2800428516651009E-014
  0.40580000000000005          4.9289331725010618E-015
  0.40690000000000004         -6.7832409833909699E-015
  0.40800000000000003         -2.0723184961637738E-014
  0.40910000000000002         -3.4223619358052520E-014
  0.41020000000000001         -4.3877205337453443E-014
  0.41130000000000000         -4.6123076603749088E-014
  0.41239999999999999         -3.8047036753494482E-014
  0.41350000000000009         -1.8269567802253734E-014
  0.41460000000000008          1.2260798956848527E-014
  0.41570000000000007          4.9781136810126375E-014
  0.41680000000000006          8.7736546791634948E-014
  0.41790000000000005          1.1745290539589283E-013
  0.41900000000000004          1.2949268370156090E-013
  0.42010000000000003          1.1558050307732214E-013
  0.42120000000000002          7.0825399640977898E-014
  0.42230000000000001         -4.1755376426020700E-015
  0.42340000000000000         -1.0185439512254101E-013
  0.42449999999999999         -2.0731300125152343E-013
  0.42560000000000009         -2.9947803123824259E-013
  0.42670000000000008         -3.5393708394068377E-013
  0.42780000000000007         -3.4730152819741321E-013
  0.42890000000000006         -2.6257279341871210E-013
  0.43000000000000005         -9.4634058942428001E-014
  0.43110000000000004          1.4526741904729208E-013
  0.43220000000000003          4.2726686882166973E-013
  0.43330000000000002          7.0392793534378413E-013
  0.43440000000000001          9.1524814570384938E-013
  0.43550000000000000          9.9763593506759448E-013
  0.43659999999999999          8.9606184914416582E-013
  0.43770000000000009          5.7773358793705989E-013
  0.43880000000000008          4.4923694062745444E-014
  0.43990000000000007         -6.5585242887364032E-013
  0.44100000000000006         -1.4310796768223340E-012
  0.44210000000000005         -2.1461031971220554E-012
  0.44320000000000004         -2.6406511939995344E-012
  0.44430000000000003         -2.7534457225051995E-012
  0.44540000000000002         -2.3534266437672943E-012
  0.44650000000000001         -1.3732529659979167E-012
  0.44760000000000000          1.6074403633128739E-013
  0.44869999999999999          2.1087079466071311E-012
  0.44980000000000009          4.2137339017506020E-012
  0.45090000000000008          6.1193589611266896E-012
  0.45200000000000007          7.4099849815824597E-012
  0.45310000000000006          7.6724221253407041E-012
  0.45420000000000005          6.5724867919575278E-012
  0.45530000000000004          3.9364691474016411E-012
  0.45640000000000003         -1.7594096953882749E-013
  0.45750000000000002         -5.4222709086452860E-012
  0.45860000000000001         -1.1165743451433183E-011
  0.45970000000000000         -1.6512629209681741E-011
  0.46079999999999999         -2.0403558460433881E-011
  0.46190000000000009         -2.1755823538771471E-011
  0.46300000000000008         -1.9644383195825394E-011
  0.46410000000000007         -1.3500005466887067E-011
  0.46520000000000006         -3.2953346409606326E-012
  0.46630000000000005          1.0314827424406790E-011
  0.46740000000000004          2.5932721290285673E-011
  0.46850000000000003          4.1464498363206868E-011
  0.46960000000000002          5.4291794388671977E-011
  0.47070000000000001          6.1568825363336487E-011
  0.47180000000000000          6.0626190819875353E-011
  0.47289999999999999          4.9441750415518020E-011
  0.47400000000000009          2.7119935260598871E-011
  0.47510000000000008         -5.6928550779901606E-012
  0.47620000000000007         -4.6534917499144028E-011
  0.47730000000000006         -9.1070927724454087E-011
  0.47840000000000005         -1.3330491670464219E-010