 -0.12000000000000000          0.0000000000000000     
 -0.11889999999999999          0.0000000000000000     
 -0.11780000000000000          0.0000000000000000     
 -0.11670000000000000          0.0000000000000000     
 -0.11559999999999999          0.0000000000000000     
 -0.11449999999999999          0.0000000000000000     
 -0.11340000000000000          0.0000000000000000     
 -0.11230000000000000          0.0000000000000000     
 -0.11119999999999999          0.0000000000000000     
 -0.11009999999999999          0.0000000000000000     
 -0.10900000000000000          0.0000000000000000     
 -0.10790000000000000          0.0000000000000000     
 -0.10679999999999999          0.0000000000000000     
 -0.10569999999999999          0.0000000000000000     
 -0.10460000000000000          0.0000000000000000     
 -0.10349999999999999          0.0000000000000000     
 -0.10239999999999999          0.0000000000000000     
 -0.10130000000000000          0.0000000000000000     
 -0.10020000000000000          0.0000000000000000     
  -9.9099999999999994E-002     0.0000000000000000     
  -9.7999999999999990E-002     0.0000000000000000     
  -9.6899999999999986E-002     0.0000000000000000     
  -9.5799999999999996E-002     0.0000000000000000     
  -9.4699999999999993E-002     0.0000000000000000     
  -9.3599999999999989E-002     0.0000000000000000     
  -9.2499999999999999E-002     0.0000000000000000     
  -9.1399999999999995E-002     0.0000000000000000     
  -9.0299999999999991E-002     0.0000000000000000     
  -8.9200000000000002E-002     0.0000000000000000     
  -8.8099999999999984E-002     0.0000000000000000     
  -8.6999999999999994E-002     0.0000000000000000     
  -8.5899999999999990E-002     0.0000000000000000     
  -8.4799999999999986E-002     0.0000000000000000     
  -8.3699999999999997E-002     0.0000000000000000     
  -8.2599999999999993E-002     0.0000000000000000     
  -8.1499999999999989E-002     0.0000000000000000     
  -8.0399999999999999E-002     0.0000000000000000     
  -7.9299999999999995E-002     0.0000000000000000     
  -7.8199999999999992E-002     0.0000000000000000     
  -7.7100000000000002E-002     0.0000000000000000     
  -7.5999999999999984E-002     0.0000000000000000     
  -7.4899999999999994E-002     0.0000000000000000     
  -7.3799999999999991E-002     0.0000000000000000     
  -7.2699999999999987E-002     0.0000000000000000     
  -7.1599999999999997E-002     0.0000000000000000     
  -7.0499999999999993E-002     0.0000000000000000     
  -6.9399999999999989E-002     0.0000000000000000     
  -6.8300000000000000E-002     0.0000000000000000     
  -6.7199999999999996E-002     0.0000000000000000     
  -6.6099999999999992E-002     0.0000000000000000     
  -6.5000000000000002E-002     0.0000000000000000     
  -6.3899999999999985E-002     0.0000000000000000     
  -6.2799999999999995E-002     0.0000000000000000     
  -6.1699999999999991E-002     0.0000000000000000     
  -6.0599999999999994E-002     0.0000000000000000     
  -5.9499999999999990E-002     0.0000000000000000     
  -5.8399999999999994E-002     0.0000000000000000     
  -5.7299999999999990E-002     0.0000000000000000     
  -5.6199999999999986E-002     9.2242681993600272E-055
  -5.5099999999999996E-002     1.8448536398720054E-054
  -5.3999999999999992E-002     9.2242681993600272E-055
  -5.2899999999999989E-002    -1.0881608075974937E-054
  -5.1799999999999985E-002     2.8025969426037857E-045
  -5.0699999999999995E-002     5.6051938982632882E-045
  -4.9599999999999991E-002     2.8025969868082958E-045
  -4.8499999999999988E-002    -1.4012984632700242E-044
  -4.7399999999999998E-002    -4.9045446478992089E-044
  -4.6299999999999994E-002    -8.6880505587561957E-044
  -4.5199999999999990E-002    -5.8854537123924611E-044
  -4.4099999999999986E-002     1.4713633681227364E-043
  -4.2999999999999997E-002     6.1937392148439936E-043
  -4.1899999999999993E-002     1.1756894196023951E-042
  -4.0799999999999989E-002     1.0173427079630719E-042
  -3.9699999999999985E-002    -1.3676672630511430E-042
  -3.8599999999999995E-002    -7.2264961499104250E-042
  -3.7499999999999992E-002    -1.4741659885944022E-041
  -3.6399999999999988E-002    -1.4996696378691169E-041
  -3.5299999999999984E-002     9.1546824178964250E-042
  -3.4199999999999994E-002     7.3083319567567570E-041
  -3.3099999999999991E-002     1.6156270638557751E-040
  -3.1999999999999987E-002     1.8775157491281761E-040
  -3.0899999999999997E-002    -2.0442138024771254E-041
  -2.9799999999999993E-002    -6.2999015248716012E-040
  -2.8699999999999989E-002    -1.5400017852801324E-039
  -2.7599999999999986E-002    -2.0061297175522074E-039
  -2.6499999999999996E-002    -4.9212483885721958E-040
  -2.5399999999999992E-002     4.6107567469634836E-039
  -2.4299999999999988E-002     1.2835958348075335E-038
  -2.3199999999999985E-002     1.8527606784407999E-038
  -2.2099999999999995E-002     9.3880735059889530E-039
  -2.0999999999999991E-002    -2.8434898652210615E-038
  -1.9899999999999987E-002    -9.4459320645898226E-038
  -1.8799999999999983E-002    -1.5031045913248555E-037
  -1.7699999999999994E-002    -1.0693715613517520E-037
  -1.6599999999999990E-002     1.4328402131452865E-037
  -1.5499999999999986E-002     6.1932450306895491E-037
  -1.4399999999999996E-002     1.0876761186217144E-036
  -1.3299999999999992E-002     9.6041517508341307E-037
  -1.2199999999999989E-002    -5.2414641803719216E-037
  -1.1099999999999985E-002    -3.6371892905725052E-036
  -9.9999999999999950E-003    -7.1055634412720480E-036
  -8.8999999999999913E-003    -7.3691313454186670E-036
  -7.7999999999999875E-003     5.2220077729841503E-037
  -6.6999999999999837E-003     1.9114182325130090E-035
  -5.5999999999999939E-003     4.2246925386383331E-035
  -4.4999999999999901E-003     5.0075037759569230E-035
  -3.3999999999999864E-003     1.2882033721717230E-035
  -2.2999999999999826E-003    -8.8893218312200118E-035
  -1.1999999999999927E-003    -2.2951198842636513E-034
  -9.9999999999988987E-005    -3.0703044625869626E-034
   1.0000000000000148E-003    -1.5602687951376879E-034
   2.1000000000000185E-003     3.5473751395915286E-034
   3.2000000000000084E-003     1.1391206039623787E-033
   4.3000000000000121E-003     1.7154046004700333E-033
   5.4000000000000159E-003     1.2280364758123724E-033
   6.5000000000000058E-003    -1.1135473456138513E-033
   7.6000000000000234E-003    -5.1417316615345084E-033
   8.7000000000000133E-003    -8.7737230592077684E-033
   9.8000000000000032E-003    -7.8968403029356241E-033
   1.0900000000000021E-002     1.8261403282837502E-033
   1.2000000000000011E-002     2.0885206418130084E-032
   1.3100000000000001E-002     4.1128296232609999E-032
   1.4200000000000018E-002     4.4198655277832538E-032
   1.5300000000000008E-002     8.2516649816865391E-033
   1.6400000000000026E-002    -7.4712657329323257E-032
   1.7500000000000016E-002    -1.7641601727959803E-031
   1.8600000000000005E-002    -2.2096256344956007E-031
   1.9700000000000023E-002    -1.0688298861085458E-031
   2.0800000000000013E-002     2.2414182711232122E-031
   2.1900000000000003E-002     6.8921457694425276E-031
   2.3000000000000020E-002     9.9889579127139282E-031
   2.4100000000000010E-002     7.1737289067305838E-031
   2.5200000000000000E-002    -4.8472985338048092E-031
   2.6300000000000018E-002    -2.4297825518676778E-030
   2.7400000000000008E-002    -4.1068737014804407E-030
   2.8500000000000025E-002    -3.7833351617260210E-030
   2.9600000000000015E-002     1.3799209304494738E-031
   3.0700000000000005E-002     7.5903810300673259E-030
   3.1800000000000023E-002     1.5380891803308296E-029
   3.2900000000000013E-002     1.7134630108505880E-029
   3.4000000000000002E-002     5.9448173144063515E-030
   3.5100000000000020E-002    -2.0185041200237274E-029
   3.6200000000000010E-002    -5.2358391584933391E-029
   3.7300000000000028E-002    -6.8909346151062165E-029
   3.8400000000000017E-002    -4.2715928717535515E-029
   3.9500000000000007E-002     4.0749011963054665E-029
   4.0600000000000025E-002     1.6085618438500467E-028
   4.1700000000000015E-002     2.4986733435711387E-028
   4.2800000000000005E-002     2.1013097057601697E-028
   4.3900000000000022E-002    -3.0331917856144932E-029
   4.5000000000000012E-002    -4.3894312201757907E-028
   4.6100000000000002E-002    -8.2244218979577676E-028
   4.7200000000000020E-002    -8.5678575964258276E-028
   4.8300000000000010E-002    -2.4511984842616902E-028
   4.9400000000000027E-002     1.0256008318289157E-027
   5.0500000000000017E-002     2.4601800198152139E-027
   5.1600000000000007E-002     3.0654198806793194E-027
   5.2700000000000025E-002     1.7599271191998443E-027
   5.3800000000000014E-002    -1.8478415599503435E-027
   5.4900000000000004E-002    -6.6574344435684185E-027
   5.6000000000000022E-002    -9.8588623526219348E-027
   5.7100000000000012E-002    -7.8818791080707202E-027
   5.8200000000000002E-002     1.4055744464546508E-027
   5.9300000000000019E-002     1.6077163936965771E-026
   6.0400000000000009E-002     2.8825458186408484E-026
   6.1500000000000027E-002     2.8826561419693296E-026
   6.2600000000000017E-002     7.5159440344381078E-027
   6.3700000000000007E-002    -3.3495194148889099E-026
   6.4800000000000024E-002    -7.6920920864041987E-026
   6.5900000000000014E-002    -9.2423221104866515E-026
   6.7000000000000004E-002    -5.0637693625301788E-026
   6.8100000000000022E-002     5.4556683059989811E-026
   6.9200000000000012E-002     1.8682972435054055E-025
   7.0300000000000029E-002     2.6737321203689112E-025
   7.1400000000000019E-002     2.0598448832290785E-025
   7.2500000000000009E-002    -4.0415635767561260E-026
   7.3600000000000027E-002    -4.0790059686590459E-025
   7.4700000000000016E-002    -7.0709128166649355E-025
   7.5800000000000006E-002    -6.8430237341617683E-025
   7.6900000000000024E-002    -1.6518294026150147E-025
   7.8000000000000014E-002     7.7429251523627832E-025
   7.9100000000000004E-002     1.7164157842335299E-024
   8.0200000000000021E-002     2.0011787973011977E-024
   8.1300000000000011E-002     1.0544762947864656E-024
   8.2400000000000029E-002    -1.1589850668451222E-024
   8.3500000000000019E-002    -3.8092061757320067E-024
   8.4600000000000009E-002    -5.3015973045842284E-024
   8.5700000000000026E-002    -3.9688116872107029E-024
   8.6800000000000016E-002     8.0976496060162124E-025
   8.7900000000000006E-002     7.6130962115781776E-024
   8.9000000000000024E-002     1.2868434725724516E-023
   9.0100000000000013E-002     1.2171449318737947E-023
   9.1200000000000003E-002     2.8727738989217502E-024
   9.2300000000000021E-002    -1.3196663926275081E-023
   9.3400000000000011E-002    -2.8666400649345894E-023
   9.4500000000000028E-002    -3.2811053812993867E-023
   9.5600000000000018E-002    -1.7125009148014959E-023
   9.6700000000000008E-002     1.7816920417436479E-023
   9.7800000000000026E-002     5.8240881139586647E-023
   9.8900000000000016E-002     7.9940040314090663E-023
  0.10000000000000001          5.9411027171028404E-023
  0.10110000000000002         -1.0105826216130114E-023
  0.10220000000000001         -1.0612169611240380E-022
  0.10330000000000003         -1.7799159487458111E-022
  0.10440000000000002         -1.6726147128667294E-022
  0.10550000000000001         -4.2663371693005896E-023
  0.10660000000000003          1.6676273361808176E-022
  0.10770000000000002          3.6325131218894419E-022
  0.10880000000000001          4.1335753613707367E-022
  0.10990000000000003          2.1926617434865176E-022
  0.11100000000000002         -2.0156983822842311E-022
  0.11210000000000001         -6.7709746456156094E-022
  0.11320000000000002         -9.2502359950621849E-022
  0.11430000000000001         -6.8811602407763495E-022
  0.11540000000000003          8.8750118010231969E-023
  0.11650000000000002          1.1372271298332794E-021
  0.11760000000000001          1.9020810187739812E-021
  0.11870000000000003          1.7780897582037818E-021
  0.11980000000000002          4.7723010711996986E-022
  0.12090000000000001         -1.6570055323421365E-021
  0.12200000000000003         -3.6118736431073482E-021
  0.12310000000000001         -4.0801673326515072E-021
  0.12420000000000003         -2.1727859827274690E-021
  0.12530000000000002          1.8519723591437607E-021
  0.12640000000000001          6.3005709053936258E-021
  0.12750000000000003          8.5530693526206241E-021
  0.12860000000000002          6.3539248887468989E-021
  0.12970000000000001         -6.3239585968185274E-022
  0.13080000000000003         -9.8825214400699333E-021
  0.13190000000000002         -1.6515399259682963E-020
  0.13300000000000001         -1.5455645212911360E-020
  0.13410000000000000         -4.5168642135580492E-021
  0.13520000000000004          1.3186763034471470E-020
  0.13630000000000003          2.9248747795242601E-020
  0.13740000000000002          3.3261746734444851E-020
  0.13850000000000001          1.8514678725727650E-020
  0.13960000000000000         -1.2588745332134030E-020
  0.14070000000000005         -4.6838258815241720E-020
  0.14180000000000004         -6.4581945437717614E-020
  0.14290000000000003         -4.9528305276465345E-020
  0.14400000000000002          2.0155842280039743E-022
  0.14510000000000001          6.6135358159004079E-020
  0.14620000000000000          1.1395901868798777E-019
  0.14730000000000004          1.0914879557764556E-019
  0.14840000000000003          3.7799979730693316E-020
  0.14950000000000002         -7.8373934624848522E-020
  0.15060000000000001         -1.8387006220206759E-019
  0.15170000000000000         -2.1227407475060343E-019
  0.15280000000000005         -1.2290558499531022E-019
  0.15390000000000004          6.6711831530889676E-020
  0.15500000000000003          2.7352738023401281E-019
  0.15610000000000002          3.7894441548185106E-019
  0.15720000000000001          2.8935587014030867E-019
  0.15830000000000000         -6.6969143439084657E-023
  0.15940000000000004         -3.7582263476563635E-019
  0.16050000000000003         -6.3879115904798193E-019
  0.16160000000000002         -5.9802563162881968E-019
  0.16270000000000001         -1.8734201276051214E-019
  0.16380000000000000          4.5845435796296461E-019
  0.16490000000000005          1.0249987879098500E-018
  0.16600000000000004          1.1528292138453127E-018
  0.16710000000000003          6.3721036816324693E-019
  0.16820000000000002         -4.0672015420350241E-019
  0.16930000000000001         -1.5209244794415317E-018
  0.17040000000000000         -2.0765963972646371E-018
  0.17150000000000004         -1.5937669407893786E-018
  0.17260000000000003         -6.0927751306609814E-020
  0.17370000000000002          1.9322202877945526E-018
  0.17480000000000001          3.3755966938264865E-018
  0.17590000000000000          3.3095337118916166E-018
  0.17700000000000005          1.3866933406220853E-018
  0.17810000000000004         -1.7771210260125702E-018
  0.17920000000000003         -4.7182555836664442E-018
  0.18030000000000002         -5.7538162334632686E-018
  0.18140000000000001         -3.8846374477326821E-018
  0.18250000000000000          4.8257783460221835E-019
  0.18360000000000004          5.4520516427825445E-018
  0.18470000000000003          8.3896785461981288E-018
  0.18580000000000002          7.2643564043555565E-018
  0.18690000000000001          1.9378116323299204E-018
  0.18800000000000000         -5.3559212623998659E-018
  0.18910000000000005         -1.0801294682895364E-017
  0.19020000000000004         -1.0886254420380063E-017
  0.19130000000000003         -4.5264221009106819E-018
  0.19240000000000002          5.7614473659529662E-018
  0.19350000000000001          1.4542816229277058E-017
  0.19460000000000005          1.6032947406274254E-017
  0.19570000000000004          7.4792207831051624E-018
  0.19680000000000003         -8.4373124754891039E-018
  0.19790000000000002         -2.3824851368194866E-017
  0.19900000000000001         -2.8930440149791100E-017
  0.20010000000000000         -1.7423495988422482E-017
  0.20120000000000005          8.9757548444205257E-018
  0.20230000000000004          3.9340736247295358E-017
  0.20340000000000003          5.7345626007684655E-017
  0.20450000000000002          4.9055873502276684E-017
  0.20560000000000000          1.1265680664080701E-017
  0.20670000000000005         -4.4111490397687314E-017
  0.20780000000000004         -9.2868195773862636E-017
  0.20890000000000003         -1.0852685720025365E-016
  0.21000000000000002         -7.5619097931962518E-017
  0.21110000000000001          2.3644540081091786E-019
  0.21220000000000000          9.1365949794950370E-017
  0.21330000000000005          1.5822783211276813E-016
  0.21440000000000003          1.6717337346186902E-016
  0.21550000000000002          1.0760126168354439E-016
  0.21660000000000001         -5.3593280496525943E-019
  0.21770000000000000         -1.1397151263499393E-016
  0.21880000000000005         -1.8589321219457173E-016
  0.21990000000000004         -1.8890052273117286E-016
  0.22100000000000003         -1.2891243117913430E-016
  0.22210000000000002         -4.1409189163703411E-017
  0.22320000000000001          2.9512922558969585E-017
  0.22430000000000000          5.8592644947717367E-017
  0.22540000000000004          5.7129950031838574E-017
  0.22650000000000003          6.7951098505906282E-017
  0.22760000000000002          1.3627007437799284E-016
  0.22870000000000001          2.7004847191333381E-016
  0.22980000000000000          4.1346962631850114E-016
  0.23090000000000005          4.5523954957594551E-016
  0.23200000000000004          2.7805370730055065E-016
  0.23310000000000003         -1.6743352629273023E-016
  0.23420000000000002         -8.0002440951353071E-016
  0.23530000000000001         -1.3964175536227703E-015
  0.23640000000000000         -1.6530410099015537E-015
  0.23750000000000004         -1.3101599602387669E-015
  0.23860000000000003         -2.9192429744291559E-016
  0.23970000000000002          1.2028054081445492E-015
  0.24080000000000001          2.7136927981062984E-015
  0.24190000000000000          3.6517961840024181E-015
  0.24300000000000005          3.5144383591831092E-015
  0.24410000000000004          2.1014523097996844E-015
  0.24520000000000003         -3.5846587495407389E-016
  0.24630000000000002         -3.2324460546520116E-015
  0.24740000000000001         -5.6603298220184097E-015
  0.24850000000000005         -6.8216755103236444E-015
  0.24960000000000004         -6.1941901151699109E-015
  0.25070000000000003         -3.7127643347223020E-015
  0.25180000000000002          2.1366342935853152E-016
  0.25290000000000001          4.8075476402505945E-015
  0.25400000000000000          9.0871802967524255E-015
  0.25510000000000005          1.2026114391323635E-014
  0.25620000000000004          1.2683769399825538E-014
  0.25730000000000003          1.0336193894657905E-014
  0.25840000000000002          4.6604552958964095E-015
  0.25950000000000001         -4.0065530262027122E-015
  0.26060000000000005         -1.4399399019251672E-014
  0.26170000000000004         -2.4204589667404044E-014
  0.26280000000000003         -3.0287882017118035E-014
  0.26390000000000002         -2.9395644660301406E-014
  0.26500000000000001         -1.9272823479172822E-014
  0.26610000000000000          9.9800998580277853E-017
  0.26720000000000005          2.5632859954065093E-014
  0.26830000000000004          5.1124353620630814E-014
  0.26940000000000003          6.8423138031268645E-014
  0.27050000000000002          6.9662503147629664E-014
  0.27160000000000001          5.0011281370809820E-014
  0.27270000000000005          1.0059888522640596E-014
  0.27380000000000004         -4.3085716163436484E-014
  0.27490000000000003         -9.6627302012787543E-014
  0.27600000000000002         -1.3486706501182923E-013
  0.27710000000000001         -1.4336899900914549E-013
  0.27820000000000000         -1.1338805129885202E-013
  0.27930000000000005         -4.5297776945008402E-014
  0.28040000000000004          5.0035834774551126E-014
  0.28150000000000003          1.5247139085214138E-013
  0.28260000000000002          2.3630337954569663E-013
  0.28370000000000001          2.7580495742880399E-013
  0.28480000000000005          2.5155428256477402E-013
  0.28590000000000004          1.5631126970089096E-013
  0.28700000000000003         -8.2528762540857086E-016
  0.28810000000000002         -1.9316842294956736E-013
  0.28920000000000001         -3.7905588711986593E-013
  0.29030000000000000         -5.0877823704841843E-013
  0.29140000000000005         -5.3540456226827112E-013
  0.29250000000000004         -4.2787425957251028E-013
  0.29360000000000003         -1.8343067700992998E-013
  0.29470000000000002          1.6441931074309024E-013
  0.29580000000000001          5.4615382855888343E-013
  0.29690000000000005          8.6699705964713774E-013
  0.29800000000000004          1.0277639130496630E-012
  0.29910000000000003          9.5194836749804020E-013
  0.30020000000000002          6.1220700669082372E-013
  0.30130000000000001          4.7998317746227988E-014
  0.30240000000000000         -6.3277556235353402E-013
  0.30350000000000005         -1.2715955561755372E-012
  0.30460000000000004         -1.6946450627459174E-012
  0.30570000000000003         -1.7579956480843455E-012
  0.30680000000000002         -1.3910273700533447E-012
  0.30790000000000001         -6.2552648771195600E-013
  0.30900000000000005          3.9936019548045097E-013
  0.31010000000000004          1.4603405122555886E-012
  0.31120000000000003          2.2980449801976078E-012
  0.31230000000000002          2.6797333685804834E-012
  0.31340000000000001          2.4618115569713220E-012
  0.31450000000000006          1.6361904206170688E-012
  0.31560000000000005          3.4715466098089745E-013
  0.31670000000000004         -1.1286727621772059E-012
  0.31780000000000003         -2.4386119985958813E-012
  0.31890000000000002         -3.2370028644405880E-012
  0.32000000000000001         -3.2777669214098402E-012
  0.32110000000000005         -2.4939596721082447E-012
  0.32220000000000004         -1.0409946647217508E-012
  0.32330000000000003          7.1493421369891113E-013
  0.32440000000000002          2.2708078469882964E-012
  0.32550000000000001          3.1149253695963890E-012
  0.32660000000000006          2.8834998217376642E-012
  0.32770000000000005          1.5053692684952123E-012
  0.32880000000000004         -7.1177145195879331E-013
  0.32990000000000003         -3.0938593275644747E-012
  0.33100000000000002         -4.7315774745205427E-012
  0.33210000000000001         -4.7185466546979986E-012
  0.33320000000000005         -2.4496990121628704E-012
  0.33430000000000004          2.0962767462953510E-012
  0.33540000000000003          8.1793148473927766E-012
  0.33650000000000002          1.4303311062863641E-011
  0.33760000000000001          1.8446971251310496E-011
  0.33870000000000006          1.8507981446515597E-011
  0.33980000000000005          1.2886544110960076E-011
  0.34090000000000004          1.0812570551550068E-012
  0.34200000000000003         -1.5858842022322481E-011
  0.34310000000000002         -3.5176150070383359E-011
  0.34420000000000001         -5.2645602912877488E-011
  0.34530000000000005         -6.3241953001209573E-011
  0.34640000000000004         -6.2162136169764720E-011
  0.34750000000000003         -4.6033721635328100E-011
  0.34860000000000002         -1.4065147279113903E-011
  0.34970000000000001          3.1138650676244486E-011
  0.35080000000000006          8.3346627934033452E-011
  0.35190000000000005          1.3322377868256964E-010
  0.35300000000000004          1.6963394501080800E-010
  0.35410000000000003          1.8158686965999199E-010
  0.35520000000000002          1.6053122636084853E-010
  0.35630000000000001          1.0257444137167462E-010
  0.35740000000000005          1.0162691625441248E-011
  0.35850000000000004         -1.0720031086547471E-010
  0.35960000000000003         -2.3347654283097105E-010
  0.36070000000000002         -3.4792540935495725E-010
  0.36180000000000001         -4.2806177872047157E-010
  0.36290000000000006         -4.5332315486255188E-010
  0.36400000000000005         -4.0885966650918335E-010
  0.36510000000000004         -2.8879182234644617E-010
  0.36620000000000003         -9.8330814944737456E-011
  0.36730000000000002          1.4568014837190926E-010
  0.36840000000000006          4.1599990004424287E-010
  0.36950000000000005          6.7790745021910888E-010
  0.37060000000000004          8.9343587774954246E-010
  0.37170000000000003          1.0263315715296055E-009
  0.37280000000000002          1.0470245740616089E-009
  0.37390000000000001          9.3688889577012086E-010
  0.37500000000000006          6.9119098979571444E-010
  0.37610000000000005          3.2035329682091164E-010
  0.37720000000000004         -1.5054060908188327E-010
  0.37830000000000003         -6.8376093645534204E-010
  0.37940000000000002         -1.2319728548724901E-009
  0.38050000000000006         -1.7416790189801313E-009
  0.38160000000000005         -2.1564761024362872E-009
  0.38270000000000004         -2.4197477271348305E-009
  0.38380000000000003         -2.4767519045507498E-009
  0.38490000000000002         -2.2764330307506803E-009
  0.38600000000000001         -1.7735766072426271E-009
  0.38710000000000000         -9.3202888773641235E-010
  0.38819999999999999          2.7043107467597045E-010
  0.38930000000000009          1.8353564261248546E-009
  0.39040000000000008          3.7353369255906892E-009
  0.39150000000000007          5.9049476297309231E-009
  0.39260000000000006          8.2321216273944612E-009
  0.39370000000000005          1.0551203429744280E-008
  0.39480000000000004          1.2638700701914416E-008
  0.39590000000000003          1.4212257084705570E-008
  0.39700000000000002          1.4932632832473289E-008
  0.39810000000000001          1.4407710497788779E-008
  0.39920000000000000          1.2196844341130247E-008
  0.40029999999999999          7.8133001569650981E-009
  0.40140000000000009          7.2217960075380283E-010
  0.40250000000000008         -9.6688834800009496E-009
  0.40360000000000007         -2.4028913916830740E-008
  0.40470000000000006         -4.3134914167638694E-008
  0.40580000000000005         -6.7917113454296246E-008
  0.40690000000000004         -9.9518807007052655E-008
  0.40800000000000003         -1.3937103854660118E-007
  0.40910000000000002         -1.8928166326284466E-007
  0.41020000000000001         -2.5153732846050713E-007
  0.41130000000000000         -3.2901729539935290E-007
  0.41239999999999999         -4.2531834560100882E-007
  0.41350000000000009         -5.4489106294491517E-007
  0.41460000000000008         -6.9318968713045541E-007
  0.41570000000000007         -8.7683923332747250E-007
  0.41680000000000006         -1.1038271113402024E-006
  0.41790000000000005         -1.3837243317705574E-006
  0.41900000000000004         -1.7279473836474030E-006
  0.42010000000000003         -2.1500663825985319E-006
  0.42120000000000002         -2.6661691529465012E-006
  0.42230000000000001         -3.2952802773901747E-006
  0.42340000000000000         -4.0598442660623890E-006
  0.42449999999999999         -4.9862696617322888E-006
  0.42560000000000009         -6.1055297610524840E-006
  0.42670000000000008         -7.4538270004349957E-006
  0.42780000000000007         -9.0733064546407346E-006
  0.42890000000000006         -1.1012828452524258E-005
  0.43000000000000005         -1.3328785758018557E-005
  0.43110000000000004         -1.6085978049285684E-005
  0.43220000000000003         -1.9358534601086249E-005
  0.43330000000000002         -2.3230891991577920E-005
  0.43440000000000001         -2.7798800003449408E-005
  0.43550000000000000         -3.3170388461199008E-005
  0.43659999999999999         -3.9467231339928883E-005
  0.43770000000000009         -4.6825432702011997E-005
  0.43880000000000008         -5.5396685348917831E-005
  0.43990000000000007         -6.5349274903355966E-005
  0.44100000000000006         -7.6869007493865214E-005
  0.44210000000000005         -9.0160028300038979E-005
  0.44320000000000004         -1.0544545456083231E-004
  0.44430000000000003         -1.2296777211424708E-004
  0.44540000000000002         -1.4298893726073618E-004
  0.44650000000000001         -1.6579011482872788E-004
  0.44760000000000000         -1.9167105971822933E-004
  0.44869999999999999         -2.2094903278314560E-004
  0.44980000000000009         -2.5395717101678035E-004
  0.45090000000000008         -2.9104240662796604E-004
  0.45200000000000007         -3.3256283314442113E-004
  0.45310000000000006         -3.7888416929736526E-004
  0.45420000000000005         -4.3037577179676662E-004
  0.45530000000000004         -4.8740577499168107E-004
  0.45640000000000003         -5.5033538651951160E-004
  0.45750000000000002         -6.1951268819015559E-004
  0.45860000000000001         -6.9526536002842995E-004
  0.45970000000000000         -7.7789241478626770E-004
  0.46079999999999999         -8.6765578693576574E-004
  0.46190000000000009         -9.6477055378220921E-004
  0.46300000000000008         -1.0693945162928271E-003
  0.46410000000000007         -1.1816178381332154E-003
  0.46520000000000006         -1.3014514623428859E-003
  0.46630000000000005         -1.4288162265027461E-003
  0.46740000000000004         -1.5635313376183106E-003
  0.46850000000000003         -1.7053030798335621E-003
  0.46960000000000002         -1.8537138713907676E-003
  0.47070000000000001         -2.0082131842354524E-003
  0.47180000000000000         -2.1681075322987874E-003
  0.47289999999999999         -2.3325541850702717E-003
  0.47400000000000009         -2.5005542990938000E-003
  0.47510000000000008         -2.6709483777701526E-003
  0.47620000000000007         -2.8424153400344516E-003
  0.47730000000000006         -3.0134720546948989E-003
  0.47840000000000005         -3.1824770657230745E-003