 -0.12000000000000000          0.0000000000000000     
 -0.11889999999999999          0.0000000000000000     
 -0.11780000000000000          0.0000000000000000     
 -0.11670000000000000          0.0000000000000000     
 -0.11559999999999999          0.0000000000000000     
 -0.11449999999999999          0.0000000000000000     
 -0.11340000000000000          0.0000000000000000     
 -0.11230000000000000          0.0000000000000000     
 -0.11119999999999999          0.0000000000000000     
 -0.11009999999999999          0.0000000000000000     
 -0.10900000000000000          7.7047853560685740E-026
 -0.10790000000000000         -3.1180719271448807E-024
 -0.10679999999999999         -4.8063707766974945E-023
 -0.10569999999999999         -3.3248490390342352E-022
 -0.10460000000000000         -1.4688303288498974E-021
 -0.10349999999999999         -4.6049290103669101E-021
 -0.10239999999999999         -1.0410043775172845E-020
 -0.10130000000000000         -1.5244898299673953E-020
 -0.10020000000000000         -3.8052973896210196E-021
  -9.9099999999999994E-002     5.7791813601326903E-020
  -9.7999999999999990E-002     2.1621918308298235E-019
  -9.6899999999999986E-002     4.9386373862899270E-019
  -9.5799999999999996E-002     8.0882035658043582E-019
  -9.4699999999999993E-002     8.7078936765167016E-019
  -9.3599999999999989E-002     1.2238462865088237E-019
  -9.2499999999999999E-002    -2.1598711497719118E-018
  -9.1399999999999995E-002    -6.4940700848813248E-018
  -9.0299999999999991E-002    -1.2524886766689064E-017
  -8.9200000000000002E-002    -1.8194476156536735E-017
  -8.8099999999999984E-002    -1.9080547065619863E-017
  -8.6999999999999994E-002    -8.3997039646626133E-018
  -8.5899999999999990E-002     2.1704534367844252E-017
  -8.4799999999999986E-002     7.6919042087828313E-017
  -8.3699999999999997E-002     1.5504726341253154E-016
  -8.2599999999999993E-002     2.3803351647475870E-016
  -8.1499999999999989E-002     2.8375585204173340E-016
  -8.0399999999999999E-002     2.2271577265661193E-016
  -7.9299999999999995E-002    -3.1822280057070316E-017
  -7.8199999999999992E-002    -5.5064701340583767E-016
  -7.7100000000000002E-002    -1.3280678284394642E-015
  -7.5999999999999984E-002    -2.2043359061100099E-015
  -7.4899999999999994E-002    -2.8038006046396651E-015
  -7.3799999999999991E-002    -2.5430298651244040E-015
  -7.2699999999999987E-002    -7.6774086957284520E-016
  -7.1599999999999997E-002     2.9518539170067179E-015
  -7.0499999999999993E-002     8.4078582515841570E-015
  -6.9399999999999989E-002     1.4362124635186255E-014
  -6.8300000000000000E-002     1.8398871903563437E-014
  -6.7199999999999996E-002     1.7265980583203860E-014
  -6.6099999999999992E-002     7.8497490896712457E-015
  -6.5000000000000002E-002    -1.1301783585328153E-014
  -6.3899999999999985E-002    -3.8305452288844161E-014
  -6.2799999999999995E-002    -6.6803103305167200E-014
  -6.1699999999999991E-002    -8.6148183855647154E-014
  -6.0599999999999994E-002    -8.3514209545283713E-014
  -5.9499999999999990E-002    -4.7971416200281655E-014
  -5.8399999999999994E-002     2.4228899729627010E-014
  -5.7299999999999990E-002     1.2475452257614678E-013
  -5.6199999999999986E-002     2.3078560546993532E-013
  -5.5099999999999996E-002     3.0708852886800198E-013
  -5.3999999999999992E-002     3.1361008625066522E-013
  -5.2899999999999989E-002     2.1792183129646508E-013
  -5.1799999999999985E-002     9.7846213688865605E-015
  -5.0699999999999995E-002    -2.8668471134356277E-013
  -4.9599999999999991E-002    -6.0846754067547804E-013
  -4.8499999999999988E-002    -8.6099459810015655E-013
  -4.7399999999999998E-002    -9.3886010077426363E-013
  -4.6299999999999994E-002    -7.5711924793844809E-013
  -4.5199999999999990E-002    -2.8584944198987994E-013
  -4.4099999999999986E-002     4.2275980893097254E-013
  -4.2999999999999997E-002     1.2261625092005457E-012
  -4.1899999999999993E-002     1.9103553374616444E-012
  -4.0799999999999989E-002     2.2374649875922525E-012
  -3.9699999999999985E-002     2.0142539979700613E-012
  -3.8599999999999995E-002     1.1646943175527835E-012
  -3.7499999999999992E-002    -2.1628575666565730E-013
  -3.6399999999999988E-002    -1.8505071607000101E-012
  -3.5299999999999984E-002    -3.3202971622126043E-012
  -3.4199999999999994E-002    -4.1677043760568466E-012
  -3.3099999999999991E-002    -4.0294447466171501E-012
  -3.1999999999999987E-002    -2.7707937940574245E-012
  -3.0899999999999997E-002    -5.7297515256710119E-013
  -2.9799999999999993E-002     2.0658763328490481E-012
  -2.8699999999999989E-002     4.4349129403598031E-012
  -2.7599999999999986E-002     5.8057599526539772E-012
  -2.6499999999999996E-002     5.6688260856307959E-012
  -2.5399999999999992E-002     3.9358286595125858E-012
  -2.4299999999999988E-002     1.0304949168288280E-012
  -2.3199999999999985E-002    -2.1854525567716054E-012
  -2.2099999999999995E-002    -4.6538719059019407E-012
  -2.0999999999999991E-002    -5.4716444049252022E-012
  -1.9899999999999987E-002    -4.2431917354757154E-012
  -1.8799999999999983E-002    -1.3052443240818556E-012
  -1.7699999999999994E-002     2.2812825847123852E-012
  -1.6599999999999990E-002     5.0114456855154810E-012
  -1.5499999999999986E-002     5.4356037899883081E-012
  -1.4399999999999996E-002     2.7368352809725716E-012
  -1.3299999999999992E-002    -2.8082024552955609E-012
  -1.2199999999999989E-002    -9.6739604174556071E-012
  -1.1099999999999985E-002    -1.5353360943715089E-011
  -9.9999999999999950E-003    -1.7041730873690319E-011
  -8.8999999999999913E-003    -1.2587795389373824E-011
  -7.7999999999999875E-003    -1.4442652802870715E-012
  -6.6999999999999837E-003     1.4703361791990055E-011
  -5.5999999999999939E-003     3.1910613040864177E-011
  -4.4999999999999901E-003     4.4695264850291849E-011
  -3.3999999999999864E-003     4.7442747647119532E-011
  -2.2999999999999826E-003     3.6201552172654416E-011
  -1.1999999999999927E-003     1.0388299595542883E-011
  -9.9999999999988987E-005    -2.6155941995620324E-011
   1.0000000000000148E-003    -6.5240521318621347E-011
   2.1000000000000185E-003    -9.5770676111772701E-011
   3.2000000000000084E-003    -1.0643397274634481E-010
   4.3000000000000121E-003    -8.9087008603438989E-011
   5.4000000000000159E-003    -4.1960337981983287E-011
   6.5000000000000058E-003     2.8338137392225349E-011
   7.6000000000000234E-003     1.0690164725657425E-010
   8.7000000000000133E-003     1.7311618805138096E-010
   9.8000000000000032E-003     2.0551380042199696E-010
   1.0900000000000021E-002     1.8788962052873615E-010
   1.2000000000000011E-002     1.1508577424379496E-010
   1.3100000000000001E-002    -3.3734124434831037E-012
   1.4200000000000018E-002    -1.4330085729152842E-010
   1.5300000000000008E-002    -2.7019114723358939E-010
   1.6400000000000026E-002    -3.4734601306318780E-010
   1.7500000000000016E-002    -3.4598554576881213E-010
   1.8600000000000005E-002    -2.5463434139005869E-010
   1.9700000000000023E-002    -8.4867092520202192E-011
   2.0800000000000013E-002     1.2883476230296509E-010
   2.1900000000000003E-002     3.3588440362386507E-010
   2.3000000000000020E-002     4.8189541246301815E-010
   2.4100000000000010E-002     5.2350690449287640E-010
   2.5200000000000000E-002     4.4162315471218960E-010
   2.6300000000000018E-002     2.4895183137196852E-010
   2.7400000000000008E-002    -1.0980537659688316E-011
   2.8500000000000025E-002    -2.7388405432482443E-010
   2.9600000000000015E-002    -4.7168996486490755E-010
   3.0700000000000005E-002    -5.5200272131017414E-010
   3.1800000000000023E-002    -4.9441511995595988E-010
   3.2900000000000013E-002    -3.1848770842834995E-010
   3.4000000000000002E-002    -8.0239079269794900E-011
   3.5100000000000020E-002     1.4281818783157263E-010
   3.6200000000000010E-002     2.7463145646500209E-010
   3.7300000000000028E-002     2.6531402075313792E-010
   3.8400000000000017E-002     1.1026576179906655E-010
   3.9500000000000007E-002    -1.4273129900210790E-010
   4.0600000000000025E-002    -4.0194397810111582E-010
   4.1700000000000015E-002    -5.5490639860877877E-010
   4.2800000000000005E-002    -5.0126103268155475E-010
   4.3900000000000022E-002    -1.8660707701290136E-010
   4.5000000000000012E-002     3.7251329798593247E-010
   4.6100000000000002E-002     1.0809242390052987E-009
   4.7200000000000020E-002     1.7788676087704403E-009
   4.8300000000000010E-002     2.2764188312152100E-009
   4.9400000000000027E-002     2.4009079169218239E-009
   5.0500000000000017E-002     2.0453467808323467E-009
   5.1600000000000007E-002     1.2041778685301097E-009
   5.2700000000000025E-002    -1.5160862149032894E-011
   5.3800000000000014E-002    -1.4106588119844332E-009
   5.4900000000000004E-002    -2.7315840700481431E-009
   5.6000000000000022E-002    -3.7407468234107455E-009
   5.7100000000000012E-002    -4.2757983820251866E-009
   5.8200000000000002E-002    -4.2902810193368168E-009
   5.9300000000000019E-002    -3.8591174700286501E-009
   6.0400000000000009E-002    -3.1423206259262315E-009
   6.1500000000000027E-002    -2.3133170934386271E-009
   6.2600000000000017E-002    -1.4707349782483448E-009
   6.3700000000000007E-002    -5.6111637558586835E-010
   6.4800000000000024E-002     6.5842298280216482E-010
   6.5900000000000014E-002     2.5955024796076032E-009
   6.7000000000000004E-002     5.7279989640335316E-009
   6.8100000000000022E-002     1.0450678544771108E-008
   6.9200000000000012E-002     1.6891599230461907E-008
   7.0300000000000029E-002     2.4737811799013798E-008
   7.1400000000000019E-002     3.3112254271827624E-008
   7.2500000000000009E-002     4.0532242451263301E-008
   7.3600000000000027E-002     4.4961055323256005E-008
   7.4700000000000016E-002     4.3938261029552450E-008
   7.5800000000000006E-002     3.4751856503589806E-008
   7.6900000000000024E-002     1.4597947739503070E-008
   7.8000000000000014E-002    -1.9325920419532849E-008
   7.9100000000000004E-002    -6.9840680794186483E-008
   8.0200000000000021E-002    -1.3994136338624230E-007
   8.1300000000000011E-002    -2.3308032837121573E-007
   8.2400000000000029E-002    -3.5354972283130337E-007
   8.3500000000000019E-002    -5.0691465958152548E-007
   8.4600000000000009E-002    -7.0044029598648194E-007
   8.5700000000000026E-002    -9.4348484935835586E-007
   8.6800000000000016E-002    -1.2478463986553834E-006
   8.7900000000000006E-002    -1.6280783938782406E-006
   8.9000000000000024E-002    -2.1018340703449212E-006
   9.0100000000000013E-002    -2.6903176149062347E-006
   9.1200000000000003E-002    -3.4188878998975269E-006
   9.2300000000000021E-002    -4.3179120439162944E-006
   9.3400000000000011E-002    -5.4238548727880698E-006
   9.4500000000000028E-002    -6.7806545303028543E-006
   9.5600000000000018E-002    -8.4412431533564813E-006
   9.6700000000000008E-002    -1.0469339940755162E-005
   9.7800000000000026E-002    -1.2941271052113734E-005
   9.8900000000000016E-002    -1.5947854990372434E-005
  0.10000000000000001         -1.9596533093135804E-005
  0.10110000000000002         -2.4013426809688099E-005
  0.10220000000000001         -2.9345759685384110E-005
  0.10330000000000003         -3.5764700442086905E-005
  0.10440000000000002         -4.3468280637171119E-005
  0.10550000000000001         -5.2685350965475664E-005
  0.10660000000000003         -6.3679355662316084E-005
  0.10770000000000002         -7.6753342000301927E-005
  0.10880000000000001         -9.2254500486887991E-005
  0.10990000000000003         -1.1057973460992798E-004
  0.11100000000000002         -1.3218089588917792E-004
  0.11210000000000001         -1.5756992797832936E-004
  0.11320000000000002         -1.8732419994194061E-004
  0.11430000000000001         -2.2209250892046839E-004
  0.11540000000000003         -2.6259809965267777E-004
  0.11650000000000002         -3.0964627512730658E-004
  0.11760000000000001         -3.6412655026651919E-004
  0.11870000000000003         -4.2701899656094611E-004
  0.11980000000000002         -4.9939728341996670E-004
  0.12090000000000001         -5.8243173407390714E-004
  0.12200000000000003         -6.7739351652562618E-004
  0.12310000000000001         -7.8565225703641772E-004
  0.12420000000000003         -9.0867979452013969E-004
  0.12530000000000002         -1.0480431374162436E-003
  0.12640000000000001         -1.2054027756676078E-003
  0.12750000000000003         -1.3825047062709928E-003
  0.12860000000000002         -1.5811673365533352E-003
  0.12970000000000001         -1.8032754305750132E-003
  0.13080000000000003         -2.0507508888840675E-003
  0.13190000000000002         -2.3255508858710527E-003
  0.13300000000000001         -2.6296225842088461E-003
  0.13410000000000000         -2.9649010393768549E-003
  0.13520000000000004         -3.3332540187984705E-003
  0.13630000000000003         -3.7364677991718054E-003
  0.13740000000000002         -4.1762096807360649E-003
  0.13850000000000001         -4.6539511531591415E-003
  0.13960000000000000         -5.1709832623600960E-003
  0.14070000000000005         -5.7283095084130764E-003
  0.14180000000000004         -6.3266227953135967E-003
  0.14290000000000003         -6.9662691093981266E-003
  0.14400000000000002         -7.6471441425383091E-003
  0.14510000000000001         -8.3687119185924530E-003
  0.14620000000000000         -9.1298781335353851E-003
  0.14730000000000004         -9.9289566278457642E-003
  0.14840000000000003         -1.0763701982796192E-002
  0.14950000000000002         -1.1631080880761147E-002
  0.15060000000000001         -1.2527507729828358E-002
  0.15170000000000000         -1.3448547571897507E-002
  0.15280000000000005         -1.4389022253453732E-002
  0.15390000000000004         -1.5343097969889641E-002
  0.15500000000000003         -1.6303902491927147E-002
  0.15610000000000002         -1.7264168709516525E-002
  0.15720000000000001         -1.8215596675872803E-002
  0.15830000000000000         -1.9149299710988998E-002
  0.15940000000000004         -2.0055824890732765E-002
  0.16050000000000003         -2.0924929529428482E-002
  0.16160000000000002         -2.1746123209595680E-002
  0.16270000000000001         -2.2508384659886360E-002
  0.16380000000000000         -2.3200526833534241E-002
  0.16490000000000005         -2.3811088874936104E-002
  0.16600000000000004         -2.4328779429197311E-002
  0.16710000000000003         -2.4742323905229568E-002
  0.16820000000000002         -2.5040760636329651E-002
  0.16930000000000001         -2.5213815271854401E-002
  0.17040000000000000         -2.5251595303416252E-002
  0.17150000000000004         -2.5145474821329117E-002
  0.17260000000000003         -2.4887248873710632E-002
  0.17370000000000002         -2.4470498785376549E-002
  0.17480000000000001         -2.3889763280749321E-002
  0.17590000000000000         -2.3141048848628998E-002
  0.17700000000000005         -2.2222559899091721E-002
  0.17810000000000004         -2.1133258938789368E-002
  0.17920000000000003         -1.9874988123774529E-002
  0.18030000000000002         -1.8450805917382240E-002
  0.18140000000000001         -1.6866005957126617E-002
  0.18250000000000000         -1.5127891674637794E-002
  0.18360000000000004         -1.3245117850601673E-002
  0.18470000000000003         -1.1229299008846283E-002
  0.18580000000000002         -9.0929102152585983E-003
  0.18690000000000001         -6.8506076931953430E-003
  0.18800000000000000         -4.5188292860984802E-003
  0.18910000000000005         -2.1142738405615091E-003
  0.19020000000000004          3.4361926373094320E-004
  0.19130000000000003          2.8355433605611324E-003
  0.19240000000000002          5.3415172733366489E-003
  0.19350000000000001          7.8396061435341835E-003
  0.19460000000000005          1.0309907607734203E-002
  0.19570000000000004          1.2730215676128864E-002
  0.19680000000000003          1.5080960467457771E-002
  0.19790000000000002          1.7341578379273415E-002
  0.19900000000000001          1.9492723047733307E-002
  0.20010000000000000          2.1517405286431313E-002
  0.20120000000000005          2.3397326469421387E-002
  0.20230000000000004          2.5119028985500336E-002
  0.20340000000000003          2.6668280363082886E-002
  0.20450000000000002          2.8033722192049026E-002
  0.20560000000000000          2.9207235202193260E-002
  0.20670000000000005          3.0180390924215317E-002
  0.20780000000000004          3.0949329957365990E-002
  0.20890000000000003          3.1510870903730392E-002
  0.21000000000000002          3.1864985823631287E-002
  0.21110000000000001          3.2013628631830215E-002
  0.21220000000000000          3.1960632652044296E-002
  0.21330000000000005          3.1712945550680161E-002
  0.21440000000000003          3.1277433037757874E-002
  0.21550000000000002          3.0664328485727310E-002
  0.21660000000000001          2.9885301366448402E-002
  0.21770000000000000          2.8951866552233696E-002
  0.21880000000000005          2.7879264205694199E-002
  0.21990000000000004          2.6681549847126007E-002
  0.22100000000000003          2.5373579934239388E-002
  0.22210000000000002          2.3972351104021072E-002
  0.22320000000000001          2.2492976859211922E-002
  0.22430000000000000          2.0952172577381134E-002
  0.22540000000000004          1.9366031512618065E-002
  0.22650000000000003          1.7749980092048645E-002
  0.22760000000000002          1.6119113191962242E-002
  0.22870000000000001          1.4487237669527531E-002
  0.22980000000000000          1.2868629768490791E-002
  0.23090000000000005          1.1274926364421844E-002
  0.23200000000000004          9.7180483862757683E-003
  0.23310000000000003          8.2089491188526154E-003
  0.23420000000000002          6.7549101077020168E-003
  0.23530000000000001          5.3652548231184483E-003
  0.23640000000000000          4.0461318567395210E-003
  0.23750000000000004          2.8022136539220810E-003
  0.23860000000000003          1.6391783719882369E-003
  0.23970000000000002          5.5881222942844033E-004
  0.24080000000000001         -4.3681298848241568E-004
  0.24190000000000000         -1.3465061783790588E-003
  0.24300000000000005         -2.1708968561142683E-003
  0.24410000000000004         -2.9104242566972971E-003
  0.24520000000000003         -3.5673025995492935E-003
  0.24630000000000002         -4.1430434212088585E-003
  0.24740000000000001         -4.6416693367063999E-003
  0.24850000000000005         -5.0667962059378624E-003
  0.24960000000000004         -5.4213358089327812E-003
  0.25070000000000003         -5.7112793438136578E-003
  0.25180000000000002         -5.9393043629825115E-003
  0.25290000000000001         -6.1104013584554195E-003
  0.25400000000000000         -6.2303883023560047E-003
  0.25510000000000005         -6.3024507835507393E-003
  0.25620000000000004         -6.3327937386929989E-003
  0.25730000000000003         -6.3251219689846039E-003
  0.25840000000000002         -6.2838960438966751E-003
  0.25950000000000001         -6.2137036584317684E-003
  0.26060000000000005         -6.1177448369562626E-003
  0.26170000000000004         -6.0010105371475220E-003
  0.26280000000000003         -5.8658560737967491E-003
  0.26390000000000002         -5.7161017321050167E-003
  0.26500000000000001         -5.5550583638250828E-003
  0.26610000000000000         -5.3839441388845444E-003
  0.26720000000000005         -5.2070277743041515E-003
  0.26830000000000004         -5.0254417583346367E-003
  0.26940000000000003         -4.8410878516733646E-003
  0.27050000000000002         -4.6563600189983845E-003
  0.27160000000000001         -4.4710268266499043E-003
  0.27270000000000005         -4.2873783968389034E-003
  0.27380000000000004         -4.1055660694837570E-003
  0.27490000000000003         -3.9266711100935936E-003
  0.27600000000000002         -3.7517312448471785E-003
  0.27710000000000001         -3.5799238830804825E-003
  0.27820000000000000         -3.4129081759601831E-003
  0.27930000000000005         -3.2493341714143753E-003
  0.28040000000000004         -3.0893951188772917E-003
  0.28150000000000003         -2.9339073225855827E-003
  0.28260000000000002         -2.7808467857539654E-003
  0.28370000000000001         -2.6314158458262682E-003
  0.28480000000000005         -2.4842629209160805E-003
  0.28590000000000004         -2.3383817169815302E-003
  0.28700000000000003         -2.1943433675915003E-003
  0.28810000000000002         -2.0504535641521215E-003
  0.28920000000000001         -1.9073018338531256E-003
  0.29030000000000000         -1.7635019030421972E-003
  0.29140000000000005         -1.6183506231755018E-003
  0.29250000000000004         -1.4716496225446463E-003
  0.29360000000000003         -1.3213526690378785E-003
  0.29470000000000002         -1.1685066856443882E-003
  0.29580000000000001         -1.0115067707374692E-003
  0.29690000000000005         -8.4975600475445390E-004
  0.29800000000000004         -6.8393431138247252E-004
  0.29910000000000003         -5.1171478116884828E-004
  0.30020000000000002         -3.3402175176888704E-004
  0.30130000000000001         -1.5013135271146894E-004
  0.30240000000000000          4.0608869312563911E-005
  0.30350000000000005          2.3721912293694913E-004
  0.30460000000000004          4.4115702621638775E-004
  0.30570000000000003          6.5149686997756362E-004
  0.30680000000000002          8.6874200496822596E-004
  0.30790000000000001          1.0927605908364058E-003
  0.30900000000000005          1.3221548870205879E-003
  0.31010000000000004          1.5579914906993508E-003
  0.31120000000000003          1.7984672449529171E-003
  0.31230000000000002          2.0435126498341560E-003
  0.31340000000000001          2.2928346879780293E-003
  0.31450000000000006          2.5442759506404400E-003
  0.31560000000000005          2.7982513420283794E-003
  0.31670000000000004          3.0527412891387939E-003
  0.31780000000000003          3.3069481141865253E-003
  0.31890000000000002          3.5600867122411728E-003
  0.32000000000000001          3.8099342491477728E-003
  0.32110000000000005          4.0564425289630890E-003
  0.32220000000000004          4.2968830093741417E-003
  0.32330000000000003          4.5303232036530972E-003
  0.32440000000000002          4.7557968646287918E-003
  0.32550000000000001          4.9705673009157181E-003
  0.32660000000000006          5.1748328842222691E-003
  0.32770000000000005          5.3661651909351349E-003
  0.32880000000000004          5.5431863293051720E-003
  0.32990000000000003          5.7054734788835049E-003
  0.33100000000000002          5.8507267385721207E-003
  0.33210000000000001          5.9787570498883724E-003
  0.33320000000000005          6.0878074727952480E-003
  0.33430000000000004          6.1773029156029224E-003
  0.33540000000000003          6.2465877272188663E-003
  0.33650000000000002          6.2943366356194019E-003
  0.33760000000000001          6.3213664107024670E-003
  0.33870000000000006          6.3261310569941998E-003
  0.33980000000000005          6.3090552575886250E-003
  0.34090000000000004          6.2709082849323750E-003
  0.34200000000000003          6.2103495001792908E-003
  0.34310000000000002          6.1291400343179703E-003
  0.34420000000000001          6.0272128321230412E-003
  0.34530000000000005          5.9049078263342381E-003
  0.34640000000000004          5.7638301514089108E-003
  0.34750000000000003          5.6042484939098358E-003
  0.34860000000000002          5.4277097806334496E-003
  0.34970000000000001          5.2352668717503548E-003
  0.35080000000000006          5.0286054611206055E-003
  0.35190000000000005          4.8092915676534176E-003
  0.35300000000000004          4.5780516229569912E-003
  0.35410000000000003          4.3374388478696346E-003
  0.35520000000000002          4.0881624445319176E-003
  0.35630000000000001          3.8318869192153215E-003
  0.35740000000000005          3.5711557138711214E-003
  0.35850000000000004          3.3064500894397497E-003
  0.35960000000000003          3.0400147661566734E-003
  0.36070000000000002          2.7736227493733168E-003
  0.36180000000000001          2.5079718325287104E-003
  0.36290000000000006          2.2450860124081373E-003
  0.36400000000000005          1.9860914908349514E-003
  0.36510000000000004          1.7321653431281447E-003
  0.36620000000000003          1.4845684636384249E-003
  0.36730000000000002          1.2441374128684402E-003
  0.36840000000000006          1.0120316874235868E-003
  0.36950000000000005          7.8843598021194339E-004
  0.37060000000000004          5.7462556287646294E-004
  0.37170000000000003          3.7122896173968911E-004
  0.37280000000000002          1.7807063704822212E-004
  0.37390000000000001         -3.4573934044601629E-006
  0.37500000000000006         -1.7377582844346762E-004
  0.37610000000000005         -3.3304444514214993E-004
  0.37720000000000004         -4.8070200136862695E-004
  0.37830000000000003         -6.1743124388158321E-004
  0.37940000000000002         -7.4294744990766048E-004
  0.38050000000000006         -8.5716811008751392E-004
  0.38160000000000005         -9.6062303055077791E-004
  0.38270000000000004         -1.0535122128203511E-003
  0.38380000000000003         -1.1364708188921213E-003
  0.38490000000000002         -1.2094622943550348E-003
  0.38600000000000001         -1.2732915347442031E-003
  0.38710000000000000         -1.3282742584124207E-003
  0.38819999999999999         -1.3744308380410075E-003
  0.38930000000000009         -1.4129941118881106E-003
  0.39040000000000008         -1.4439511578530073E-003
  0.39150000000000007         -1.4676227001473308E-003
  0.39260000000000006         -1.4849167782813311E-003
  0.39370000000000005         -1.4957317616790533E-003
  0.39480000000000004         -1.5005486784502864E-003
  0.39590000000000003         -1.5002680011093616E-003
  0.39700000000000002         -1.4949522446841002E-003
  0.39810000000000001         -1.4850916340947151E-003
  0.39920000000000000         -1.4708633534610271E-003
  0.40029999999999999         -1.4527213061228395E-003
  0.40140000000000009         -1.4308183453977108E-003
  0.40250000000000008         -1.4054501662030816E-003
  0.40360000000000007         -1.3775218976661563E-003
  0.40470000000000006         -1.3465060619637370E-003
  0.40580000000000005         -1.3130385195836425E-003
  0.40690000000000004         -1.2777596712112427E-003
  0.40800000000000003         -1.2397844111546874E-003
  0.40910000000000002         -1.2004792224615812E-003
  0.41020000000000001         -1.1597627308219671E-003
  0.41130000000000000         -1.1176511179655790E-003
  0.41239999999999999         -1.0748652275651693E-003
  0.41350000000000009         -1.0307919001206756E-003
  0.41460000000000008         -9.8614615853875875E-004
  0.41570000000000007         -9.4061298295855522E-004
  0.41680000000000006         -8.9507707161828876E-004
  0.41790000000000005         -8.4991776384413242E-004
  0.41900000000000004         -8.0414110561832786E-004
  0.42010000000000003         -7.5937184737995267E-004
  0.42120000000000002         -7.1445421781390905E-004
  0.42230000000000001         -6.6952954512089491E-004
  0.42340000000000000         -6.2619755044579506E-004
  0.42449999999999999         -5.8296060888096690E-004
  0.42560000000000009         -5.4097676184028387E-004
  0.42670000000000008         -5.0018733600154519E-004
  0.42780000000000007         -4.5977893751114607E-004
  0.42890000000000006         -4.2063280125148594E-004
  0.43000000000000005         -3.8243932067416608E-004
  0.43110000000000004         -3.4610266447998583E-004
  0.43220000000000003         -3.1071767443791032E-004
  0.43330000000000002         -2.7659448096528649E-004
  0.43440000000000001         -2.4408145691268146E-004
  0.43550000000000000         -2.1153895067982376E-004
  0.43659999999999999         -1.8138861923944205E-004
  0.43770000000000009         -1.5249292482621968E-004
  0.43880000000000008         -1.2418164988048375E-004
  0.43990000000000007         -9.8237702331971377E-005
  0.44100000000000006         -7.2422044468112290E-005
  0.44210000000000005         -4.7759745939401910E-005
  0.44320000000000004         -2.4538996513001621E-005
  0.44430000000000003         -2.0457043774513295E-006
  0.44540000000000002          1.8835244190995581E-005
  0.44650000000000001          3.9045287849148735E-005
  0.44760000000000000          5.7900575484381989E-005
  0.44869999999999999          7.6321157393977046E-005
  0.44980000000000009          9.3873626610729843E-005
  0.45090000000000008          1.0940078936982900E-004
  0.45200000000000007          1.2501209857873619E-004
  0.45310000000000006          1.3883270730730146E-004
  0.45420000000000005          1.5168226673267782E-004
  0.45530000000000004          1.6447446250822395E-004
  0.45640000000000003          1.7500108515378088E-004
  0.45750000000000002          1.8511516100261360E-004
  0.45860000000000001          1.9391010573599488E-004
  0.45970000000000000          2.0132446661591530E-004
  0.46079999999999999          2.0810750720556825E-004
  0.46190000000000009          2.1313707111403346E-004
  0.46300000000000008          2.1773458865936846E-004
  0.46410000000000007          2.2039448958821595E-004
  0.46520000000000006          2.2187428839970380E-004
  0.46630000000000005          2.2279539552982897E-004
  0.46740000000000004          2.2141763474792242E-004
  0.46850000000000003          2.2010809334460646E-004
  0.46960000000000002          2.1728522551711649E-004
  0.47070000000000001          2.1274323808029294E-004
  0.47180000000000000          2.0805369422305375E-004
  0.47289999999999999          2.0156797836534679E-004
  0.47400000000000009          1.9479397451505065E-004
  0.47510000000000008          1.8718391947913915E-004
  0.47620000000000007          1.7883112013805658E-004
  0.47730000000000006          1.7025618581101298E-004
  0.47840000000000005          1.6045490338001400E-004