 -0.12000000000000000          0.0000000000000000     
 -0.11889999999999999          0.0000000000000000     
 -0.11780000000000000          0.0000000000000000     
 -0.11670000000000000          0.0000000000000000     
 -0.11559999999999999          0.0000000000000000     
 -0.11449999999999999          0.0000000000000000     
 -0.11340000000000000          0.0000000000000000     
 -0.11230000000000000          0.0000000000000000     
 -0.11119999999999999          0.0000000000000000     
 -0.11009999999999999          0.0000000000000000     
 -0.10900000000000000          0.0000000000000000     
 -0.10790000000000000          0.0000000000000000     
 -0.10679999999999999          0.0000000000000000     
 -0.10569999999999999          0.0000000000000000     
 -0.10460000000000000          0.0000000000000000     
 -0.10349999999999999          0.0000000000000000     
 -0.10239999999999999          0.0000000000000000     
 -0.10130000000000000          0.0000000000000000     
 -0.10020000000000000          0.0000000000000000     
  -9.9099999999999994E-002     0.0000000000000000     
  -9.7999999999999990E-002     0.0000000000000000     
  -9.6899999999999986E-002     0.0000000000000000     
  -9.5799999999999996E-002     0.0000000000000000     
  -9.4699999999999993E-002     0.0000000000000000     
  -9.3599999999999989E-002     0.0000000000000000     
  -9.2499999999999999E-002     0.0000000000000000     
  -9.1399999999999995E-002     0.0000000000000000     
  -9.0299999999999991E-002     0.0000000000000000     
  -8.9200000000000002E-002     0.0000000000000000     
  -8.8099999999999984E-002     0.0000000000000000     
  -8.6999999999999994E-002     0.0000000000000000     
  -8.5899999999999990E-002     0.0000000000000000     
  -8.4799999999999986E-002     0.0000000000000000     
  -8.3699999999999997E-002     0.0000000000000000     
  -8.2599999999999993E-002     0.0000000000000000     
  -8.1499999999999989E-002     0.0000000000000000     
  -8.0399999999999999E-002     0.0000000000000000     
  -7.9299999999999995E-002     0.0000000000000000     
  -7.8199999999999992E-002     0.0000000000000000     
  -7.7100000000000002E-002     0.0000000000000000     
  -7.5999999999999984E-002     0.0000000000000000     
  -7.4899999999999994E-002     0.0000000000000000     
  -7.3799999999999991E-002     0.0000000000000000     
  -7.2699999999999987E-002     0.0000000000000000     
  -7.1599999999999997E-002     0.0000000000000000     
  -7.0499999999999993E-002     0.0000000000000000     
  -6.9399999999999989E-002     0.0000000000000000     
  -6.8300000000000000E-002     0.0000000000000000     
  -6.7199999999999996E-002     0.0000000000000000     
  -6.6099999999999992E-002     0.0000000000000000     
  -6.5000000000000002E-002     0.0000000000000000     
  -6.3899999999999985E-002     0.0000000000000000     
  -6.2799999999999995E-002     0.0000000000000000     
  -6.1699999999999991E-002     0.0000000000000000     
  -6.0599999999999994E-002     0.0000000000000000     
  -5.9499999999999990E-002     0.0000000000000000     
  -5.8399999999999994E-002     0.0000000000000000     
  -5.7299999999999990E-002     0.0000000000000000     
  -5.6199999999999986E-002     0.0000000000000000     
  -5.5099999999999996E-002     0.0000000000000000     
  -5.3999999999999992E-002     0.0000000000000000     
  -5.2899999999999989E-002     0.0000000000000000     
  -5.1799999999999985E-002     0.0000000000000000     
  -5.0699999999999995E-002     0.0000000000000000     
  -4.9599999999999991E-002     0.0000000000000000     
  -4.8499999999999988E-002     0.0000000000000000     
  -4.7399999999999998E-002     0.0000000000000000     
  -4.6299999999999994E-002     0.0000000000000000     
  -4.5199999999999990E-002     0.0000000000000000     
  -4.4099999999999986E-002     0.0000000000000000     
  -4.2999999999999997E-002     0.0000000000000000     
  -4.1899999999999993E-002     0.0000000000000000     
  -4.0799999999999989E-002     0.0000000000000000     
  -3.9699999999999985E-002     0.0000000000000000     
  -3.8599999999999995E-002     0.0000000000000000     
  -3.7499999999999992E-002     0.0000000000000000     
  -3.6399999999999988E-002     0.0000000000000000     
  -3.5299999999999984E-002     0.0000000000000000     
  -3.4199999999999994E-002     0.0000000000000000     
  -3.3099999999999991E-002     0.0000000000000000     
  -3.1999999999999987E-002     0.0000000000000000     
  -3.0899999999999997E-002     0.0000000000000000     
  -2.9799999999999993E-002     0.0000000000000000     
  -2.8699999999999989E-002     0.0000000000000000     
  -2.7599999999999986E-002     0.0000000000000000     
  -2.6499999999999996E-002     0.0000000000000000     
  -2.5399999999999992E-002     0.0000000000000000     
  -2.4299999999999988E-002     0.0000000000000000     
  -2.3199999999999985E-002     0.0000000000000000     
  -2.2099999999999995E-002     0.0000000000000000     
  -2.0999999999999991E-002     0.0000000000000000     
  -1.9899999999999987E-002     0.0000000000000000     
  -1.8799999999999983E-002     0.0000000000000000     
  -1.7699999999999994E-002     0.0000000000000000     
  -1.6599999999999990E-002     0.0000000000000000     
  -1.5499999999999986E-002     0.0000000000000000     
  -1.4399999999999996E-002     0.0000000000000000     
  -1.3299999999999992E-002     0.0000000000000000     
  -1.2199999999999989E-002     0.0000000000000000     
  -1.1099999999999985E-002     0.0000000000000000     
  -9.9999999999999950E-003     0.0000000000000000     
  -8.8999999999999913E-003     0.0000000000000000     
  -7.7999999999999875E-003     0.0000000000000000     
  -6.6999999999999837E-003     0.0000000000000000     
  -5.5999999999999939E-003     0.0000000000000000     
  -4.4999999999999901E-003     0.0000000000000000     
  -3.3999999999999864E-003     0.0000000000000000     
  -2.2999999999999826E-003     0.0000000000000000     
  -1.1999999999999927E-003     0.0000000000000000     
  -9.9999999999988987E-005     0.0000000000000000     
   1.0000000000000148E-003     0.0000000000000000     
   2.1000000000000185E-003     0.0000000000000000     
   3.2000000000000084E-003     0.0000000000000000     
   4.3000000000000121E-003     0.0000000000000000     
   5.4000000000000159E-003     0.0000000000000000     
   6.5000000000000058E-003     0.0000000000000000     
   7.6000000000000234E-003     0.0000000000000000     
   8.7000000000000133E-003     0.0000000000000000     
   9.8000000000000032E-003     0.0000000000000000     
   1.0900000000000021E-002     0.0000000000000000     
   1.2000000000000011E-002     0.0000000000000000     
   1.3100000000000001E-002     0.0000000000000000     
   1.4200000000000018E-002     0.0000000000000000     
   1.5300000000000008E-002     0.0000000000000000     
   1.6400000000000026E-002     0.0000000000000000     
   1.7500000000000016E-002     0.0000000000000000     
   1.8600000000000005E-002     0.0000000000000000     
   1.9700000000000023E-002     0.0000000000000000     
   2.0800000000000013E-002     0.0000000000000000     
   2.1900000000000003E-002     0.0000000000000000     
   2.3000000000000020E-002     0.0000000000000000     
   2.4100000000000010E-002     0.0000000000000000     
   2.5200000000000000E-002     0.0000000000000000     
   2.6300000000000018E-002     0.0000000000000000     
   2.7400000000000008E-002     0.0000000000000000     
   2.8500000000000025E-002     0.0000000000000000     
   2.9600000000000015E-002     0.0000000000000000     
   3.0700000000000005E-002     0.0000000000000000     
   3.1800000000000023E-002     0.0000000000000000     
   3.2900000000000013E-002     0.0000000000000000     
   3.4000000000000002E-002     0.0000000000000000     
   3.5100000000000020E-002     0.0000000000000000     
   3.6200000000000010E-002     0.0000000000000000     
   3.7300000000000028E-002     0.0000000000000000     
   3.8400000000000017E-002     0.0000000000000000     
   3.9500000000000007E-002     0.0000000000000000     
   4.0600000000000025E-002     0.0000000000000000     
   4.1700000000000015E-002     0.0000000000000000     
   4.2800000000000005E-002     0.0000000000000000     
   4.3900000000000022E-002     0.0000000000000000     
   4.5000000000000012E-002     0.0000000000000000     
   4.6100000000000002E-002     0.0000000000000000     
   4.7200000000000020E-002     0.0000000000000000     
   4.8300000000000010E-002     3.9693481243960003E-051
   4.9400000000000027E-002     8.0705413643386293E-047
   5.0500000000000017E-002     1.6140685793864819E-046
   5.1600000000000007E-002     2.4215279494022159E-046
   5.2700000000000025E-002     1.6132705406528160E-046
   5.3800000000000014E-002    -2.4225142910963606E-046
   5.4900000000000004E-002    -8.0731669535284761E-046
   5.6000000000000022E-002    -1.2118808348540155E-045
   5.7100000000000012E-002     1.8655315521896085E-045
   5.8200000000000002E-002     6.3957287836302520E-045
   5.9300000000000019E-002     1.3597472853377868E-044
   6.0400000000000009E-002     1.6970528835759394E-044
   6.1500000000000027E-002     7.0845968799070329E-045
   6.2600000000000017E-002    -2.3163289443668416E-044
   6.3700000000000007E-002    -7.2886169856654286E-044
   6.4800000000000024E-002    -1.1918279209037215E-043
   6.5900000000000014E-002    -1.1936507569180497E-043
   6.7000000000000004E-002    -1.9286977322326304E-044
   6.8100000000000022E-002     2.0632257265854638E-043
   6.9200000000000012E-002     5.1041242734653740E-043
   7.0300000000000029E-002     7.2883967614595619E-043
   7.1400000000000019E-002     5.9342250288344975E-043
   7.2500000000000009E-002    -1.6993698521368113E-043
   7.3600000000000027E-002    -1.6101896865623336E-042
   7.4700000000000016E-002    -3.2846806829762075E-042
   7.5800000000000006E-002    -4.1014399968998495E-042
   7.6900000000000024E-002    -2.5276638307844174E-042
   7.8000000000000014E-002     2.6349270980856627E-042
   7.9100000000000004E-002     1.0974156097250370E-041
   8.0200000000000021E-002     1.9200647166299070E-041
   8.1300000000000011E-002     2.0863112066614657E-041
   8.2400000000000029E-002     8.2709278558859667E-042
   8.3500000000000019E-002    -2.2805410316444050E-041
   8.4600000000000009E-002    -6.6617843022882575E-041
   8.5700000000000026E-002    -1.0239592519585009E-040
   8.6800000000000016E-002    -9.5951981842286633E-041
   8.7900000000000006E-002    -1.2850094433090531E-041
   8.9000000000000024E-002     1.5627257485037243E-040
   9.0100000000000013E-002     3.6613558100040949E-040
   9.1200000000000003E-002     5.0113320133952908E-040
   9.2300000000000021E-002     3.9724954000055282E-040
   9.3400000000000011E-002    -8.1672841203116990E-041
   9.4500000000000028E-002    -9.2187417331709440E-040
   9.5600000000000018E-002    -1.8408593781428368E-039
   9.6700000000000008E-002    -2.2598385406860146E-039
   9.7800000000000026E-002    -1.4632940561519685E-039
   9.8900000000000016E-002     1.0126520505062122E-039
  0.10000000000000001          4.8495272879464245E-039
  0.10110000000000002          8.5299643743345569E-039
  0.10220000000000001          9.4170602517498814E-039
  0.10330000000000003          4.6682114866682651E-039
  0.10440000000000002         -6.9905127154999100E-039
  0.10550000000000001         -2.3175669933601810E-038
  0.10660000000000003         -3.6623971845690674E-038
  0.10770000000000002         -3.6323389934675619E-038
  0.10880000000000001         -1.2009301712869812E-038
  0.10990000000000003          3.8476945263366664E-038
  0.11100000000000002          1.0175732596426403E-037
  0.11210000000000001          1.4628560648065675E-037
  0.11320000000000002          1.2971693654253647E-037
  0.11430000000000001          1.8596895428899025E-038
  0.11540000000000003         -1.8375747581440445E-037
  0.11650000000000002         -4.1354244357998522E-037
  0.11760000000000001         -5.4511438863274160E-037
  0.11870000000000003         -4.2819183227786636E-037
  0.11980000000000002          3.4024514625811163E-038
  0.12090000000000001          7.8805130732875341E-037
  0.12200000000000003          1.5635091571139811E-036
  0.12310000000000001          1.8984699193701356E-036
  0.12420000000000003          1.3005997461040424E-036
  0.12530000000000002         -4.6919491874885013E-037
  0.12640000000000001         -3.0889091194630776E-036
  0.12750000000000003         -5.5184449069585271E-036
  0.12860000000000002         -6.1838895054815199E-036
  0.12970000000000001         -3.6000413591954392E-036
  0.13080000000000003          2.6819348611714623E-036
  0.13190000000000002          1.1181621565519071E-035
  0.13300000000000001          1.8223701958144274E-035
  0.13410000000000000          1.8828509162319807E-035
  0.13520000000000004          8.8973815929494357E-036
  0.13630000000000003         -1.1867440266532052E-035
  0.13740000000000002         -3.7627459528235907E-035
  0.13850000000000001         -5.6369626177783770E-035
  0.13960000000000000         -5.3465207953691609E-035
  0.14070000000000005         -1.8710742316645293E-035
  0.14180000000000004          4.5381351316122891E-035
  0.14290000000000003          1.1821155788229940E-034
  0.14400000000000002          1.6331786358377274E-034
  0.14510000000000001          1.4089638973729734E-034
  0.14620000000000000          2.8728302432764260E-035
  0.14730000000000004         -1.5622840235217842E-034
  0.14840000000000003         -3.4764759316600522E-034
  0.14950000000000002         -4.4260154938439720E-034
  0.15060000000000001         -3.4138272011806684E-034
  0.15170000000000000         -4.9692067737730491E-036
  0.15280000000000005          4.9395596252247708E-034
  0.15390000000000004          9.5843316313535810E-034
  0.15500000000000003          1.1184324860248784E-033
  0.15610000000000002          7.4684359727331665E-034
  0.15720000000000001         -1.9501737355769298E-034
  0.15830000000000000         -1.4506031618061061E-033
  0.15940000000000004         -2.4774694331146179E-033
  0.16050000000000003         -2.6195933961161108E-033
  0.16160000000000002         -1.4186491102031531E-033
  0.16270000000000001          1.0485334572727991E-033
  0.16380000000000000          3.9830818771412403E-033
  0.16490000000000005          5.9965530271370118E-033
  0.16600000000000004          5.6249458140101577E-033
  0.16710000000000003          2.0992631165456229E-033
  0.16820000000000002         -3.9483608047709548E-033
  0.16930000000000001         -1.0261604013778982E-032
  0.17040000000000000         -1.3541556795653524E-032
  0.17150000000000004         -1.0836895962545068E-032
  0.17260000000000003         -1.2969159143623424E-033
  0.17370000000000002          1.2540015436372526E-032
  0.17480000000000001          2.4821071122017210E-032
  0.17590000000000000          2.8310626279652663E-032
  0.17700000000000005          1.7831254631617622E-032
  0.17810000000000004         -6.1114041533568631E-033
  0.17920000000000003         -3.5461829790955315E-032
  0.18030000000000002         -5.6214701216494443E-032
  0.18140000000000001         -5.3909371115233344E-032
  0.18250000000000000         -2.1434064187158335E-032
  0.18360000000000004          3.4335446962844994E-032
  0.18470000000000003          9.1195203689733737E-032
  0.18580000000000002          1.1828903023266540E-031
  0.18690000000000001          9.0048554172415750E-032
  0.18800000000000000          2.2983541744689537E-033
  0.18910000000000005         -1.1767266129766262E-031
  0.19020000000000004         -2.1491516432949171E-031
  0.19130000000000003         -2.2744244433868693E-031
  0.19240000000000002         -1.1825916878434098E-031
  0.19350000000000001          9.4999444025924002E-032
  0.19460000000000005          3.3030397893349437E-031
  0.19570000000000004          4.6402773642433978E-031
  0.19680000000000003          3.8529753625912727E-031
  0.19790000000000002          6.2783624765100381E-032
  0.19900000000000001         -4.0911377561392517E-031
  0.20010000000000000         -8.1810395106602136E-031
  0.20120000000000005         -9.1100069859058813E-031
  0.20230000000000004         -5.2157308238177043E-031
  0.20340000000000003          3.0427294601611318E-031
  0.20450000000000002          1.2573689662597794E-030
  0.20560000000000000          1.8438048596055125E-030
  0.20670000000000005          1.5959927169226630E-030
  0.20780000000000004          3.4585171134649727E-031
  0.20890000000000003         -1.5705738979764553E-030
  0.21000000000000002         -3.3166068361102472E-030
  0.21110000000000001         -3.8402014621429059E-030
  0.21220000000000000         -2.3840734334486353E-030
  0.21330000000000005          9.8186764544335962E-031
  0.21440000000000003          5.0936027206820292E-030
  0.21550000000000002          7.9356839446291327E-030
  0.21660000000000001          7.4435023104120809E-030
  0.21770000000000000          2.6247389868222338E-030
  0.21880000000000005         -5.5012325847608570E-030
  0.21990000000000004         -1.3725264282078703E-029
  0.22100000000000003         -1.7600014330911868E-029
  0.22210000000000002         -1.3404651187088055E-029
  0.22320000000000001         -4.1642562545755318E-031
  0.22430000000000000          1.7628256497103040E-029
  0.22540000000000004          3.2950445310722755E-029
  0.22650000000000003          3.6449578590753771E-029
  0.22760000000000002          2.2069777241231293E-029
  0.22870000000000001         -8.9465859311232961E-030
  0.22980000000000000         -4.6207118166760871E-029
  0.23090000000000005         -7.2502205672537742E-029
  0.23200000000000004         -7.0490332192026328E-029
  0.23310000000000003         -3.1672792153452013E-029
  0.23420000000000002          3.6276399517704876E-029
  0.23530000000000001          1.0817384332837845E-028
  0.23640000000000000          1.4860912154583277E-028
  0.23750000000000004          1.2683625965835147E-028
  0.23860000000000003          3.4009349958550827E-029
  0.23970000000000002         -1.0536348242425426E-028
  0.24080000000000001         -2.3542847664945655E-028
  0.24190000000000000         -2.8760430249377250E-028
  0.24300000000000005         -2.1142355231668800E-028
  0.24410000000000004         -5.6392219571932631E-030
  0.24520000000000003          2.6611153360425037E-028
  0.24630000000000002          4.8766854672487720E-028
  0.24740000000000001          5.3287660092960385E-028
  0.24850000000000005          3.2582474267703222E-028
  0.24960000000000004         -1.0623352711128950E-028
  0.25070000000000003         -6.1593094878343073E-028
  0.25180000000000002         -9.7373360172567245E-028
  0.25290000000000001         -9.5773071707211880E-028
  0.25400000000000000         -4.6552482488103722E-028
  0.25510000000000005          4.0090299532812960E-028
  0.25620000000000004          1.3268728821916122E-027
  0.25730000000000003          1.8787338572449444E-027
  0.25840000000000002          1.6819360370576749E-027
  0.25950000000000001          6.1949821446147478E-028
  0.26060000000000005         -1.0403895342507896E-027
  0.26170000000000004         -2.6688055679380978E-027
  0.26280000000000003         -3.4813385274072871E-027
  0.26390000000000002         -2.8726942169403974E-027
  0.26500000000000001         -7.5316332740156866E-028
  0.26610000000000000          2.2744212223681647E-027
  0.26720000000000005          5.0230649704481570E-027
  0.26830000000000004          6.1358902336559077E-027
  0.26940000000000003          4.6852829640462001E-027
  0.27050000000000002          7.1725709837591145E-028
  0.27160000000000001         -4.5315365455904499E-027
  0.27270000000000005         -8.9271746095746709E-027
  0.27380000000000004         -1.0226502716730996E-026
  0.27490000000000003         -7.1051374011369340E-027
  0.27600000000000002          3.9622137686967512E-030
  0.27710000000000001          8.7025209390626815E-027
  0.27820000000000000          1.5295753808518536E-026
  0.27930000000000005          1.6226854896997518E-026
  0.28040000000000004          9.7785428904553498E-027
  0.28150000000000003         -2.6979999845098846E-027
  0.28260000000000002         -1.6713429239120091E-026
  0.28370000000000001         -2.6027554252846951E-026
  0.28480000000000005         -2.5174378721634339E-026
  0.28590000000000004         -1.2199661169281591E-026
  0.28700000000000003          9.6216392250593695E-027
  0.28810000000000002          3.2119302979216816E-026
  0.28920000000000001          4.4916565505482463E-026
  0.29030000000000000          3.9747842520374646E-026
  0.29140000000000005          1.4763692509167493E-026
  0.29250000000000004         -2.3170393235231350E-026
  0.29360000000000003         -5.9678725962657570E-026
  0.29470000000000002         -7.7786846028123153E-026
  0.29580000000000001         -6.5081634782096646E-026
  0.29690000000000005         -2.0324363959363193E-026
  0.29800000000000004          4.3610632414408219E-026
  0.29910000000000003          1.0256546203499690E-025
  0.30020000000000002          1.2958959753179498E-025
  0.30130000000000001          1.0639150544728784E-025
  0.30240000000000000          3.3171574059874402E-026
  0.30350000000000005         -6.7907214450082926E-026
  0.30460000000000004         -1.5839457794904171E-025
  0.30570000000000003         -1.9755647163447749E-025
  0.30680000000000002         -1.5997204956792268E-025
  0.30790000000000001         -4.9479494537375526E-026
  0.30900000000000005          9.7468847769845761E-026
  0.31010000000000004          2.2247145850731445E-025
  0.31120000000000003          2.6757598585883483E-025
  0.31230000000000002          2.0139143524424291E-025
  0.31340000000000001          3.7748727160761501E-026
  0.31450000000000006         -1.6290598751747728E-025
  0.31560000000000005         -3.1314206158472573E-025
  0.31670000000000004         -3.3407507109525497E-025
  0.31780000000000003         -1.9348676494245621E-025
  0.31890000000000002          7.0423278929206762E-026
  0.32000000000000001          3.5322980805333584E-025
  0.32110000000000005          5.1982689786957807E-025
  0.32220000000000004          4.6113412530081113E-025
  0.32330000000000003          1.5025603837923531E-025
  0.32440000000000002         -3.2748156981788036E-025
  0.32550000000000001         -7.8927981322523691E-025
  0.32660000000000006         -1.0165168444733283E-024
  0.32770000000000005         -8.4490385939037126E-025
  0.32880000000000004         -2.4869692014842192E-025
  0.32990000000000003          6.1916139516618472E-025
  0.33100000000000002          1.4566264941056144E-024
  0.33210000000000001          1.9116240505230923E-024
  0.33320000000000005          1.7201809134578391E-024
  0.33430000000000004          8.3123081046109461E-025
  0.33540000000000003         -5.3707047152738979E-025
  0.33650000000000002         -1.9439922602202383E-024
  0.33760000000000001         -2.8715157035624166E-024
  0.33870000000000006         -2.9211559191331958E-024
  0.33980000000000005         -1.9865058631169657E-024
  0.34090000000000004         -3.2569763119938079E-025
  0.34200000000000003          1.5091149340999223E-024
  0.34310000000000002          2.8719526182401999E-024
  0.34420000000000001          3.2814787275885798E-024
  0.34530000000000005          2.6316596665052396E-024
  0.34640000000000004          1.2560724512379663E-024
  0.34750000000000003         -2.0012366002614204E-025
  0.34860000000000002         -1.0657461160114214E-024
  0.34970000000000001         -9.7479310849387919E-025
  0.35080000000000006         -9.3268669588170893E-026
  0.35190000000000005          8.8422982020646402E-025
  0.35300000000000004          1.0083280202833246E-024
  0.35410000000000003         -4.5961860804475608E-025
  0.35520000000000002         -3.5733630177909977E-024
  0.35630000000000001         -7.4426076695139349E-024
  0.35740000000000005         -1.0360313513117228E-023
  0.35850000000000004         -1.0349744069183648E-023
  0.35960000000000003         -5.9858013040009825E-024
  0.36070000000000002          2.8036383437181788E-024
  0.36180000000000001          1.4300898379765393E-023
  0.36290000000000006          2.5184859366007457E-023
  0.36400000000000005          3.1391824304168144E-023
  0.36510000000000004          2.9440967156642307E-023
  0.36620000000000003          1.7798865187714768E-023
  0.36730000000000002         -2.2186318443904098E-024
  0.36840000000000006         -2.6398029101432525E-023
  0.36950000000000005         -4.8549450999825137E-023
  0.37060000000000004         -6.2168493577744182E-023
  0.37170000000000003         -6.2325228553266553E-023
  0.37280000000000002         -4.7161548366840408E-023
  0.37390000000000001         -1.8505092981483813E-023
  0.37500000000000006          1.8571845842003114E-023
  0.37610000000000005          5.7032281108320690E-023
  0.37720000000000004          8.9483983802833878E-023
  0.37830000000000003          1.0954289440653979E-022
  0.37940000000000002          1.1257373500730394E-022
  0.38050000000000006          9.5810512729365299E-023
  0.38160000000000005          5.8238372142720093E-023
  0.38270000000000004          7.9022629924411424E-025
  0.38380000000000003         -7.2757662474460514E-023
  0.38490000000000002         -1.5430134260799914E-022
  0.38600000000000001         -2.3007577871372143E-022
  0.38710000000000000         -2.8067038013192748E-022
  0.38819999999999999         -2.8356821624254808E-022
  0.38930000000000009         -2.1872039947392369E-022
  0.39040000000000008         -7.6453596703695713E-023
  0.39150000000000007          1.3438228974361911E-022
  0.39260000000000006          3.8113444534121046E-022
  0.39370000000000005          6.0813421528841930E-022
  0.39480000000000004          7.4560132088014889E-022
  0.39590000000000003          7.2642260210044543E-022
  0.39700000000000002          5.0768288867542548E-022
  0.39810000000000001          9.1260561868601720E-023
  0.39920000000000000         -4.6346575428233721E-022
  0.40029999999999999         -1.0409973786674978E-021
  0.40140000000000009         -1.4884224375301472E-021
  0.40250000000000008         -1.6500543070271864E-021
  0.40360000000000007         -1.4114323082749780E-021
  0.40470000000000006         -7.4189925915330396E-022
  0.40580000000000005          2.7689267248307277E-022
  0.40690000000000004          1.4477574018692288E-021
  0.40800000000000003          2.4864182731868041E-021
  0.40910000000000002          3.0805507513147538E-021
  0.41020000000000001          2.9698350917424620E-021
  0.41130000000000000          2.0298346852888804E-021
  0.41239999999999999          3.3786708081370943E-022
  0.41350000000000009         -1.8010197839982500E-021
  0.41460000000000008         -3.8844272766747960E-021
  0.41570000000000007         -5.3050171815979536E-021
  0.41680000000000006         -5.4957609685450125E-021
  0.41790000000000005         -4.1023946494064070E-021
  0.41900000000000004         -1.1430003000821260E-021
  0.42010000000000003          2.8935581870826963E-021
  0.42120000000000002          7.0563932273859150E-021
  0.42230000000000001          1.0079003776424498E-020
  0.42340000000000000          1.0664451468328911E-020
  0.42449999999999999          7.8706438914793325E-021
  0.42560000000000009          1.5147305218523700E-021
  0.42670000000000008         -7.5178785906366678E-021
  0.42780000000000007         -1.7185566627465983E-020
  0.42890000000000006         -2.4526840264562482E-020
  0.43000000000000005         -2.6262413348170380E-020
  0.43110000000000004         -1.9708284268380197E-020
  0.43220000000000003         -3.8313108637586431E-021
  0.43330000000000002          1.9823942908448816E-020
  0.43440000000000001          4.6665056701976055E-020
  0.43550000000000000          6.9343704111966641E-020
  0.43659999999999999          7.8993160100432419E-020
  0.43770000000000009          6.7375966278955115E-020
  0.43880000000000008          2.9623074367797517E-020
  0.43990000000000007         -3.3039703353686038E-020
  0.44100000000000006         -1.1138735337337938E-019
  0.44210000000000005         -1.8796170836830958E-019
  0.44320000000000004         -2.3916363114796892E-019
  0.44430000000000003         -2.3988205936015681E-019
  0.44540000000000002         -1.7021943713900012E-019
  0.44650000000000001         -2.3128656686337815E-020
  0.44760000000000000          1.8887894104481532E-019
  0.44869999999999999          4.3015787108727118E-019
  0.44980000000000009          6.4356141702250291E-019
  0.45090000000000008          7.5862285463836350E-019
  0.45200000000000007          7.0628426247964185E-019
  0.45310000000000006          4.3839332842208743E-019
  0.45420000000000005         -5.1690243065735361E-020
  0.45530000000000004         -7.1255344634457180E-019
  0.45640000000000003         -1.4280603794772105E-018
  0.45750000000000002         -2.0256715434745855E-018
  0.45860000000000001         -2.3026058081966790E-018
  0.45970000000000000         -2.0689638622670004E-018
  0.46079999999999999         -1.2022170552582046E-018
  0.46190000000000009          2.9732222602453316E-019
  0.46300000000000008          2.2640939977862699E-018
  0.46410000000000007          4.3532231955373365E-018
  0.46520000000000006          6.0678036736324476E-018
  0.46630000000000005          6.8342569422191574E-018
  0.46740000000000004          6.1224923895213601E-018
  0.46850000000000003          3.5952500096783705E-018
  0.46960000000000002         -7.4135790883311150E-019
  0.47070000000000001         -6.4233744047115239E-018
  0.47180000000000000         -1.2490863973180166E-017
  0.47289999999999999         -1.7560376244371378E-017
  0.47400000000000009         -2.0025983393698971E-017
  0.47510000000000008         -1.8381094657325681E-017
  0.47620000000000007         -1.1621370604491181E-017
  0.47730000000000006          3.4315960899601645E-019
  0.47840000000000005          1.6363539692819579E-017