 -0.12000000000000000          0.0000000000000000     
 -0.11889999999999999          0.0000000000000000     
 -0.11780000000000000          0.0000000000000000     
 -0.11670000000000000          0.0000000000000000     
 -0.11559999999999999          0.0000000000000000     
 -0.11449999999999999          0.0000000000000000     
 -0.11340000000000000          0.0000000000000000     
 -0.11230000000000000          0.0000000000000000     
 -0.11119999999999999          0.0000000000000000     
 -0.11009999999999999          0.0000000000000000     
 -0.10900000000000000          0.0000000000000000     
 -0.10790000000000000          0.0000000000000000     
 -0.10679999999999999          0.0000000000000000     
 -0.10569999999999999          0.0000000000000000     
 -0.10460000000000000          0.0000000000000000     
 -0.10349999999999999          0.0000000000000000     
 -0.10239999999999999          0.0000000000000000     
 -0.10130000000000000          0.0000000000000000     
 -0.10020000000000000          0.0000000000000000     
  -9.9099999999999994E-002     0.0000000000000000     
  -9.7999999999999990E-002     0.0000000000000000     
  -9.6899999999999986E-002     0.0000000000000000     
  -9.5799999999999996E-002     0.0000000000000000     
  -9.4699999999999993E-002     0.0000000000000000     
  -9.3599999999999989E-002     0.0000000000000000     
  -9.2499999999999999E-002     0.0000000000000000     
  -9.1399999999999995E-002     0.0000000000000000     
  -9.0299999999999991E-002     0.0000000000000000     
  -8.9200000000000002E-002     0.0000000000000000     
  -8.8099999999999984E-002     0.0000000000000000     
  -8.6999999999999994E-002     0.0000000000000000     
  -8.5899999999999990E-002     0.0000000000000000     
  -8.4799999999999986E-002     0.0000000000000000     
  -8.3699999999999997E-002     0.0000000000000000     
  -8.2599999999999993E-002     0.0000000000000000     
  -8.1499999999999989E-002     0.0000000000000000     
  -8.0399999999999999E-002     0.0000000000000000     
  -7.9299999999999995E-002     0.0000000000000000     
  -7.8199999999999992E-002     0.0000000000000000     
  -7.7100000000000002E-002     0.0000000000000000     
  -7.5999999999999984E-002     0.0000000000000000     
  -7.4899999999999994E-002     0.0000000000000000     
  -7.3799999999999991E-002     0.0000000000000000     
  -7.2699999999999987E-002     0.0000000000000000     
  -7.1599999999999997E-002     0.0000000000000000     
  -7.0499999999999993E-002     0.0000000000000000     
  -6.9399999999999989E-002     0.0000000000000000     
  -6.8300000000000000E-002     0.0000000000000000     
  -6.7199999999999996E-002     0.0000000000000000     
  -6.6099999999999992E-002     0.0000000000000000     
  -6.5000000000000002E-002     0.0000000000000000     
  -6.3899999999999985E-002     0.0000000000000000     
  -6.2799999999999995E-002     0.0000000000000000     
  -6.1699999999999991E-002     0.0000000000000000     
  -6.0599999999999994E-002     0.0000000000000000     
  -5.9499999999999990E-002     0.0000000000000000     
  -5.8399999999999994E-002     0.0000000000000000     
  -5.7299999999999990E-002     0.0000000000000000     
  -5.6199999999999986E-002     0.0000000000000000     
  -5.5099999999999996E-002     0.0000000000000000     
  -5.3999999999999992E-002     0.0000000000000000     
  -5.2899999999999989E-002     0.0000000000000000     
  -5.1799999999999985E-002     0.0000000000000000     
  -5.0699999999999995E-002     0.0000000000000000     
  -4.9599999999999991E-002     0.0000000000000000     
  -4.8499999999999988E-002     0.0000000000000000     
  -4.7399999999999998E-002     0.0000000000000000     
  -4.6299999999999994E-002     0.0000000000000000     
  -4.5199999999999990E-002     0.0000000000000000     
  -4.4099999999999986E-002     0.0000000000000000     
  -4.2999999999999997E-002     0.0000000000000000     
  -4.1899999999999993E-002     0.0000000000000000     
  -4.0799999999999989E-002     0.0000000000000000     
  -3.9699999999999985E-002     0.0000000000000000     
  -3.8599999999999995E-002     0.0000000000000000     
  -3.7499999999999992E-002     0.0000000000000000     
  -3.6399999999999988E-002     0.0000000000000000     
  -3.5299999999999984E-002     0.0000000000000000     
  -3.4199999999999994E-002     0.0000000000000000     
  -3.3099999999999991E-002     0.0000000000000000     
  -3.1999999999999987E-002     0.0000000000000000     
  -3.0899999999999997E-002     0.0000000000000000     
  -2.9799999999999993E-002     0.0000000000000000     
  -2.8699999999999989E-002     0.0000000000000000     
  -2.7599999999999986E-002     0.0000000000000000     
  -2.6499999999999996E-002     0.0000000000000000     
  -2.5399999999999992E-002     0.0000000000000000     
  -2.4299999999999988E-002     0.0000000000000000     
  -2.3199999999999985E-002     0.0000000000000000     
  -2.2099999999999995E-002     0.0000000000000000     
  -2.0999999999999991E-002     0.0000000000000000     
  -1.9899999999999987E-002     0.0000000000000000     
  -1.8799999999999983E-002     0.0000000000000000     
  -1.7699999999999994E-002     0.0000000000000000     
  -1.6599999999999990E-002     0.0000000000000000     
  -1.5499999999999986E-002     0.0000000000000000     
  -1.4399999999999996E-002     0.0000000000000000     
  -1.3299999999999992E-002     0.0000000000000000     
  -1.2199999999999989E-002     0.0000000000000000     
  -1.1099999999999985E-002     0.0000000000000000     
  -9.9999999999999950E-003     0.0000000000000000     
  -8.8999999999999913E-003     0.0000000000000000     
  -7.7999999999999875E-003     0.0000000000000000     
  -6.6999999999999837E-003     0.0000000000000000     
  -5.5999999999999939E-003     0.0000000000000000     
  -4.4999999999999901E-003     0.0000000000000000     
  -3.3999999999999864E-003     0.0000000000000000     
  -2.2999999999999826E-003     0.0000000000000000     
  -1.1999999999999927E-003     0.0000000000000000     
  -9.9999999999988987E-005     0.0000000000000000     
   1.0000000000000148E-003     0.0000000000000000     
   2.1000000000000185E-003     0.0000000000000000     
   3.2000000000000084E-003     0.0000000000000000     
   4.3000000000000121E-003     0.0000000000000000     
   5.4000000000000159E-003     0.0000000000000000     
   6.5000000000000058E-003     0.0000000000000000     
   7.6000000000000234E-003     0.0000000000000000     
   8.7000000000000133E-003     0.0000000000000000     
   9.8000000000000032E-003     0.0000000000000000     
   1.0900000000000021E-002     0.0000000000000000     
   1.2000000000000011E-002     0.0000000000000000     
   1.3100000000000001E-002     0.0000000000000000     
   1.4200000000000018E-002     0.0000000000000000     
   1.5300000000000008E-002     0.0000000000000000     
   1.6400000000000026E-002     0.0000000000000000     
   1.7500000000000016E-002     0.0000000000000000     
   1.8600000000000005E-002     0.0000000000000000     
   1.9700000000000023E-002     0.0000000000000000     
   2.0800000000000013E-002     0.0000000000000000     
   2.1900000000000003E-002     0.0000000000000000     
   2.3000000000000020E-002     0.0000000000000000     
   2.4100000000000010E-002     0.0000000000000000     
   2.5200000000000000E-002     0.0000000000000000     
   2.6300000000000018E-002     0.0000000000000000     
   2.7400000000000008E-002     0.0000000000000000     
   2.8500000000000025E-002     0.0000000000000000     
   2.9600000000000015E-002     0.0000000000000000     
   3.0700000000000005E-002     0.0000000000000000     
   3.1800000000000023E-002     0.0000000000000000     
   3.2900000000000013E-002     0.0000000000000000     
   3.4000000000000002E-002     0.0000000000000000     
   3.5100000000000020E-002     0.0000000000000000     
   3.6200000000000010E-002     0.0000000000000000     
   3.7300000000000028E-002     0.0000000000000000     
   3.8400000000000017E-002     0.0000000000000000     
   3.9500000000000007E-002     0.0000000000000000     
   4.0600000000000025E-002     0.0000000000000000     
   4.1700000000000015E-002     0.0000000000000000     
   4.2800000000000005E-002     0.0000000000000000     
   4.3900000000000022E-002     0.0000000000000000     
   4.5000000000000012E-002     0.0000000000000000     
   4.6100000000000002E-002     0.0000000000000000     
   4.7200000000000020E-002     0.0000000000000000     
   4.8300000000000010E-002     0.0000000000000000     
   4.9400000000000027E-002     0.0000000000000000     
   5.0500000000000017E-002     0.0000000000000000     
   5.1600000000000007E-002     0.0000000000000000     
   5.2700000000000025E-002     0.0000000000000000     
   5.3800000000000014E-002     0.0000000000000000     
   5.4900000000000004E-002     0.0000000000000000     
   5.6000000000000022E-002     0.0000000000000000     
   5.7100000000000012E-002     0.0000000000000000     
   5.8200000000000002E-002     0.0000000000000000     
   5.9300000000000019E-002     0.0000000000000000     
   6.0400000000000009E-002     0.0000000000000000     
   6.1500000000000027E-002     0.0000000000000000     
   6.2600000000000017E-002     0.0000000000000000     
   6.3700000000000007E-002     0.0000000000000000     
   6.4800000000000024E-002     0.0000000000000000     
   6.5900000000000014E-002     0.0000000000000000     
   6.7000000000000004E-002     0.0000000000000000     
   6.8100000000000022E-002     0.0000000000000000     
   6.9200000000000012E-002     0.0000000000000000     
   7.0300000000000029E-002     0.0000000000000000     
   7.1400000000000019E-002     0.0000000000000000     
   7.2500000000000009E-002     0.0000000000000000     
   7.3600000000000027E-002     0.0000000000000000     
   7.4700000000000016E-002     0.0000000000000000     
   7.5800000000000006E-002     0.0000000000000000     
   7.6900000000000024E-002     0.0000000000000000     
   7.8000000000000014E-002     0.0000000000000000     
   7.9100000000000004E-002     0.0000000000000000     
   8.0200000000000021E-002     0.0000000000000000     
   8.1300000000000011E-002     0.0000000000000000     
   8.2400000000000029E-002     0.0000000000000000     
   8.3500000000000019E-002     0.0000000000000000     
   8.4600000000000009E-002     0.0000000000000000     
   8.5700000000000026E-002     0.0000000000000000     
   8.6800000000000016E-002     0.0000000000000000     
   8.7900000000000006E-002     0.0000000000000000     
   8.9000000000000024E-002     0.0000000000000000     
   9.0100000000000013E-002     0.0000000000000000     
   9.1200000000000003E-002     0.0000000000000000     
   9.2300000000000021E-002     0.0000000000000000     
   9.3400000000000011E-002     0.0000000000000000     
   9.4500000000000028E-002     0.0000000000000000     
   9.5600000000000018E-002     0.0000000000000000     
   9.6700000000000008E-002     0.0000000000000000     
   9.7800000000000026E-002     0.0000000000000000     
   9.8900000000000016E-002     0.0000000000000000     
  0.10000000000000001          0.0000000000000000     
  0.10110000000000002          0.0000000000000000     
  0.10220000000000001          0.0000000000000000     
  0.10330000000000003          0.0000000000000000     
  0.10440000000000002          0.0000000000000000     
  0.10550000000000001          0.0000000000000000     
  0.10660000000000003          0.0000000000000000     
  0.10770000000000002          0.0000000000000000     
  0.10880000000000001          0.0000000000000000     
  0.10990000000000003          0.0000000000000000     
  0.11100000000000002          0.0000000000000000     
  0.11210000000000001          0.0000000000000000     
  0.11320000000000002          0.0000000000000000     
  0.11430000000000001          0.0000000000000000     
  0.11540000000000003          0.0000000000000000     
  0.11650000000000002          0.0000000000000000     
  0.11760000000000001          0.0000000000000000     
  0.11870000000000003          0.0000000000000000     
  0.11980000000000002          0.0000000000000000     
  0.12090000000000001          0.0000000000000000     
  0.12200000000000003          0.0000000000000000     
  0.12310000000000001          0.0000000000000000     
  0.12420000000000003          0.0000000000000000     
  0.12530000000000002          1.4012984643248171E-045
  0.12640000000000001          2.8025969286496341E-045
  0.12750000000000003          1.4012984678570740E-045
  0.12860000000000002         -1.4012984497214683E-045
  0.12970000000000001         -7.0064923011649680E-045
  0.13080000000000003         -8.4077907717958266E-045
  0.13190000000000002         -1.4012984545804965E-045
  0.13300000000000001          1.2611686150997545E-044
  0.13410000000000000          2.6624670750837847E-044
  0.13520000000000004          3.0828566112778245E-044
  0.13630000000000003          1.2611686110265053E-044
  0.13740000000000002         -3.0828566179613619E-044
  0.13850000000000001         -8.8281803052143409E-044
  0.13960000000000000         -1.2611686139567310E-043
  0.14070000000000005         -1.0509738431232802E-043
  0.14180000000000004          5.6051942949039018E-045
  0.14290000000000003          1.8917529272678859E-043
  0.14400000000000002          3.7835058468602980E-043
  0.14510000000000001          4.4421161165714736E-043
  0.14620000000000000          2.5643761690583071E-043
  0.14730000000000004         -2.3681944220076839E-043
  0.14840000000000003         -9.2065309117999059E-043
  0.14950000000000002         -1.4685607879158804E-042
  0.15060000000000001         -1.4026997569406385E-042
  0.15170000000000000         -3.3491032523488216E-043
  0.15280000000000005          1.7109854313350298E-042
  0.15390000000000004          4.0119175037814398E-042
  0.15500000000000003          5.1721926219863946E-042
  0.15610000000000002          3.6195539119575184E-042
  0.15720000000000001         -1.4279231636447955E-042
  0.15830000000000000         -8.8926400786795741E-042
  0.15940000000000004         -1.5316192218018562E-041
  0.16050000000000003         -1.5663714200169744E-041
  0.16160000000000002         -5.7201002549465219E-042
  0.16270000000000001          1.4490827523183961E-041
  0.16380000000000000          3.7969583279289418E-041
  0.16490000000000005          5.1001658923689172E-041
  0.16600000000000004          3.8178376544864123E-041
  0.16710000000000003         -8.2144118664197468E-042
  0.16820000000000002         -7.8101370278261158E-041
  0.16930000000000001         -1.3925263391933481E-040
  0.17040000000000000         -1.4524598719402973E-040
  0.17150000000000004         -5.8034775505497988E-041
  0.17260000000000003          1.2115206226123273E-040
  0.17370000000000002          3.2848397949760078E-040
  0.17480000000000001          4.4229323671804786E-040
  0.17590000000000000          3.2986005353594502E-040
  0.17700000000000005         -6.9889762272016404E-041
  0.17810000000000004         -6.6206448212018262E-040
  0.17920000000000003         -1.1659223655685737E-039
  0.18030000000000002         -1.1923214267050318E-039
  0.18140000000000001         -4.4031600401690616E-040
  0.18250000000000000          1.0487149598688500E-039
  0.18360000000000004          2.7164689316784679E-039
  0.18470000000000003          3.5569299187678536E-039
  0.18580000000000002          2.5260436813354787E-039
  0.18690000000000001         -7.8371119807398588E-040
  0.18800000000000000         -5.5011796926115112E-039
  0.18910000000000005         -9.3146873638331150E-039
  0.19020000000000004         -9.1756561435538035E-039
  0.19130000000000003         -2.8965147853109179E-039
  0.19240000000000002          8.9073298700979073E-039
  0.19350000000000001          2.1623548762295558E-038
  0.19460000000000005          2.7411511224438250E-038
  0.19570000000000004          1.8533809027884365E-038
  0.19680000000000003         -7.5047127022800333E-039
  0.19790000000000002         -4.3378637331680843E-038
  0.19900000000000001         -7.1240198023324598E-038
  0.20010000000000000         -6.8500967936398170E-038
  0.20120000000000005         -1.9896663071961322E-038
  0.20230000000000004          6.8575258699908897E-038
  0.20340000000000003          1.6187628356383741E-037
  0.20450000000000002          2.0268829459043165E-037
  0.20560000000000000          1.3619830825370413E-037
  0.20670000000000005         -5.3384599772304892E-038
  0.20780000000000004         -3.1177946886700552E-037
  0.20890000000000003         -5.1184912934965421E-037
  0.21000000000000002         -4.9578303046375571E-037
  0.21110000000000001         -1.5897261582339732E-037
  0.21220000000000000          4.5595467185965163E-037
  0.21330000000000005          1.1092401520013585E-036
  0.21440000000000003          1.4125014104675427E-036
  0.21550000000000002          9.9549319546763704E-037
  0.21660000000000001         -2.5340253568490019E-037
  0.21770000000000000         -1.9862356850950207E-036
  0.21880000000000005         -3.3793937980240795E-036
  0.21990000000000004         -3.4046263239478399E-036
  0.22100000000000003         -1.3613557745836471E-036
  0.22210000000000002          2.5303907663498979E-036
  0.22320000000000001          6.8125429221009938E-036
  0.22430000000000000          9.0760934808770914E-036
  0.22540000000000004          6.9682902086014779E-036
  0.22650000000000003         -3.5106070793385025E-037
  0.22760000000000002         -1.0978461449470760E-035
  0.22870000000000001         -2.0115536581439204E-035
  0.22980000000000000         -2.1595708132665683E-035
  0.23090000000000005         -1.0946826345108297E-035
  0.23200000000000004          1.1146579922186988E-035
  0.23310000000000003          3.6879129181857045E-035
  0.23420000000000002          5.2717770530244541E-035
  0.23530000000000001          4.4836683638933772E-035
  0.23640000000000000          7.1669268917449512E-036
  0.23750000000000004         -5.1560373393285406E-035
  0.23860000000000003         -1.0639774740589259E-034
  0.23970000000000002         -1.2369666217086760E-034
  0.24080000000000001         -7.7008764521477468E-035
  0.24190000000000000          3.4358769805181127E-035
  0.24300000000000005          1.7388282054915504E-034
  0.24410000000000004          2.7318277486333075E-034
  0.24520000000000003          2.5816808472961168E-034
  0.24630000000000002          8.9455654273208073E-035
  0.24740000000000001         -2.0048953800930266E-034
  0.24850000000000005         -4.9636272901052360E-034
  0.24960000000000004         -6.3223095821796473E-034
  0.25070000000000003         -4.6591375269830533E-034
  0.25180000000000002          3.0270505511601926E-035
  0.25290000000000001          7.0793968128315664E-034
  0.25400000000000000          1.2570989133217473E-033
  0.25510000000000005          1.3182737523174215E-033
  0.25620000000000004          6.6654763430636407E-034
  0.25730000000000003         -6.0932677073711627E-034
  0.25840000000000002         -2.0363097814726701E-033
  0.25950000000000001         -2.8763555146861102E-033
  0.26060000000000005         -2.4400750121717633E-033
  0.26170000000000004         -4.9088580055933455E-034
  0.26280000000000003          2.4541238189704404E-033
  0.26390000000000002          5.1338565991432638E-033
  0.26500000000000001          5.9719899513321818E-033
  0.26610000000000000          3.8376386156281830E-033
  0.26720000000000005         -1.1669511658655295E-033
  0.26830000000000004         -7.3210963650203971E-033
  0.26940000000000003         -1.1660457275826596E-032
  0.27050000000000002         -1.1172398638051941E-032
  0.27160000000000001         -4.4370485365971593E-033
  0.27270000000000005          7.0390049001630141E-033
  0.27380000000000004          1.8639464215095104E-032
  0.27490000000000003          2.4101341421265544E-032
  0.27600000000000002          1.8379396392100315E-032
  0.27710000000000001          8.1128792214902285E-034
  0.27820000000000000         -2.3052691711528444E-032
  0.27930000000000005         -4.2403119907925618E-032
  0.28040000000000004         -4.5307928098582794E-032
  0.28150000000000003         -2.4818923446919887E-032
  0.28260000000000002          1.5638678371942424E-032
  0.28370000000000001          6.0760868079363961E-032
  0.28480000000000005          8.7813172022687740E-032
  0.28590000000000004          7.6522742769673672E-032
  0.28700000000000003          2.0782929755523458E-032
  0.28810000000000002         -6.3591728800978852E-032
  0.28920000000000001         -1.4048946602629971E-031
  0.29030000000000000         -1.6655113978327201E-031
  0.29140000000000005         -1.1215425711307817E-031
  0.29250000000000004          1.8513784620097710E-032
  0.29360000000000003          1.7935177940401142E-031
  0.29470000000000002          2.9419148862997613E-031
  0.29580000000000001          2.8827593102120073E-031
  0.29690000000000005          1.2843384314399452E-031
  0.29800000000000004         -1.4689719124140457E-031
  0.29910000000000003         -4.2680182746636386E-031
  0.30020000000000002         -5.6521896781249872E-031
  0.30130000000000001         -4.4782559160603855E-031
  0.30240000000000000         -6.1601300225149291E-032
  0.30350000000000005          4.6897597829853639E-031
  0.30460000000000004          9.0781999367974788E-031
  0.30570000000000003          9.9927533569807882E-031
  0.30680000000000002          5.9659310113141539E-031
  0.30790000000000001         -2.3044621531644604E-031
  0.30900000000000005         -1.1711156813230925E-030
  0.31010000000000004         -1.7685192151818343E-030
  0.31120000000000003         -1.6169947972370910E-030
  0.31230000000000002         -5.8729188585012220E-031
  0.31340000000000001          1.0302919265527616E-030
  0.31450000000000006          2.5616638089774715E-030
  0.31560000000000005          3.1934115274076643E-030
  0.31670000000000004          2.3553666238914462E-030
  0.31780000000000003          8.0139238384374164E-032
  0.31890000000000002         -2.8522774186659004E-030
  0.32000000000000001         -5.1162171004945153E-030
  0.32110000000000005         -5.3755525999539290E-030
  0.32220000000000004         -2.9646099275738912E-030
  0.32330000000000003          1.5963865835436633E-030
  0.32440000000000002          6.5576289570417319E-030
  0.32550000000000001          9.5109515042358337E-030
  0.32660000000000006          8.4415849285803586E-030
  0.32770000000000005          2.8476002857399236E-030
  0.32880000000000004         -5.6233719924570731E-030
  0.32990000000000003         -1.3462364659795639E-029
  0.33100000000000002         -1.6595496093934513E-029
  0.33210000000000001         -1.2283434503493289E-029
  0.33320000000000005         -8.1689722148154897E-031
  0.33430000000000004          1.3890497368009411E-029
  0.33540000000000003          2.5372381641240058E-029
  0.33650000000000002          2.7203971129723274E-029
  0.33760000000000001          1.6188420729137409E-029
  0.33870000000000006         -5.3089251649686541E-030
  0.33980000000000005         -2.9232432733456704E-029
  0.34090000000000004         -4.4483941200433564E-029
  0.34200000000000003         -4.1671132579342488E-029
  0.34310000000000002         -1.8090935593036055E-029
  0.34420000000000001          1.9450672140927859E-029
  0.34530000000000005          5.5847665123283381E-029
  0.34640000000000004          7.3227094478958452E-029
  0.34750000000000003          5.9044161215772495E-029
  0.34860000000000002          1.3339568642080024E-029
  0.34970000000000001         -4.8562323499922235E-029
  0.35080000000000006         -1.0020574982138064E-028
  0.35190000000000005         -1.1444422218170840E-028
  0.35300000000000004         -7.6429320221655697E-029
  0.35410000000000003          6.6137742244337577E-030
  0.35520000000000002          1.0422462388317345E-028
  0.35630000000000001          1.7250685717629367E-028
  0.35740000000000005          1.7242188764272529E-028
  0.35850000000000004          8.9514058231411002E-029
  0.35960000000000003         -5.4109844219581943E-029
  0.36070000000000002         -2.0284219165327859E-028
  0.36180000000000001         -2.8721638817910911E-028
  0.36290000000000006         -2.5404578389163264E-028
  0.36400000000000005         -9.4786592401579286E-029
  0.36510000000000004          1.4166948059938469E-028
  0.36620000000000003          3.6080465455830830E-028
  0.36730000000000002          4.5796317403530562E-028
  0.36840000000000006          3.6522355652180076E-028
  0.36950000000000005          8.9719988167181370E-029
  0.37060000000000004         -2.7611816872215340E-028
  0.37170000000000003         -5.8223149266152332E-028
  0.37280000000000002         -6.8024086379855666E-028
  0.37390000000000001         -4.9217202309059718E-028
  0.37500000000000006         -5.8081322183500043E-029
  0.37610000000000005          4.6326771543253168E-028
  0.37720000000000004          8.4887365346348082E-028
  0.37830000000000003          9.0477386620191893E-028
  0.37940000000000002          5.6078563675739228E-028
  0.38050000000000006         -7.7575736853458746E-029
  0.38160000000000005         -7.5150788103636170E-028
  0.38270000000000004         -1.1473443594442500E-027
  0.38380000000000003         -1.0370286328779364E-027
  0.38490000000000002         -4.0105931227942182E-028
  0.38600000000000001          5.2746579737663412E-028
  0.38710000000000000          1.3321660342605036E-027
  0.38819999999999999          1.5827320257316509E-027
  0.38930000000000009          1.0413286599595215E-027
  0.39040000000000008         -1.8543690782721851E-028
  0.39150000000000007         -1.6308116075249502E-027
  0.39260000000000006         -2.6205643429752138E-027
  0.39370000000000005         -2.5528474945193842E-027
  0.39480000000000004         -1.1974693881557157E-027
  0.39590000000000003          1.1210236258035780E-027
  0.39700000000000002          3.5617724600116951E-027
  0.39810000000000001          5.0489647807248601E-027
  0.39920000000000000          4.7100619741230240E-027
  0.40029999999999999          2.2993870230081202E-027
  0.40140000000000009         -1.5852107815319355E-027
  0.40250000000000008         -5.6215160144660593E-027
  0.40360000000000007         -8.2154925055299009E-027
  0.40470000000000006         -8.1352397733557670E-027
  0.40580000000000005         -5.0721105966111257E-027
  0.40690000000000004          1.2687539158332311E-028
  0.40800000000000003          5.6973071546599461E-027
  0.40910000000000002          9.6147638211360578E-027
  0.41020000000000001          1.0424289938491251E-026
  0.41130000000000000          7.8871175735023870E-027
  0.41239999999999999          3.1314172031700577E-027
  0.41350000000000009         -1.8136319245781321E-027
  0.41460000000000008         -4.9461533145692988E-027
  0.41570000000000007         -5.2873837786737785E-027
  0.41680000000000006         -3.4621286940556682E-027
  0.41790000000000005         -1.5105727458355356E-027
  0.41900000000000004         -1.8984837659426292E-027
  0.42010000000000003         -6.0837471181078296E-027
  0.42120000000000002         -1.3285902726452070E-026
  0.42230000000000001         -2.0138267521922745E-026
  0.42340000000000000         -2.1618215355514051E-026
  0.42449999999999999         -1.3124824381084254E-026
  0.42560000000000009          6.9978215326667583E-027
  0.42670000000000008          3.5557618339837800E-026
  0.42780000000000007          6.4254421238498481E-026
  0.42890000000000006          8.1582613845724568E-026
  0.43000000000000005          7.6594048660701787E-026
  0.43110000000000004          4.3378894093689064E-026
  0.43220000000000003         -1.5382160320521534E-026
  0.43330000000000002         -8.7350579740216782E-026
  0.43440000000000001         -1.5277479556818652E-025
  0.43550000000000000         -1.8972497855360352E-025
  0.43659999999999999         -1.8084214595188467E-025
  0.43770000000000009         -1.1942783335028616E-025
  0.43880000000000008         -1.2771839665108936E-026
  0.43990000000000007          1.1852268959946262E-025
  0.44100000000000006          2.4510635407688671E-025
  0.44210000000000005          3.3591346329884737E-025
  0.44320000000000004          3.6546737244324695E-025
  0.44430000000000003          3.1938460826424561E-025
  0.44540000000000002          1.9691311528375330E-025
  0.44650000000000001          1.0623530709913202E-026
  0.44760000000000000         -2.1559479655316688E-025
  0.44869999999999999         -4.4882561324683534E-025
  0.44980000000000009         -6.4898254925000316E-025
  0.45090000000000008         -7.7080406970244247E-025
  0.45200000000000007         -7.6774476858824935E-025
  0.45310000000000006         -5.9977084276955669E-025
  0.45420000000000005         -2.4587921582014947E-025
  0.45530000000000004          2.8034804786262628E-025
  0.45640000000000003          9.1681738987818881E-025
  0.45750000000000002          1.5473875319276998E-024
  0.45860000000000001          2.0113842721595798E-024
  0.45970000000000000          2.1317956062728319E-024
  0.46079999999999999          1.7601620542480008E-024
  0.46190000000000009          8.2945193577170719E-025
  0.46300000000000008         -5.9936260581028918E-025
  0.46410000000000007         -2.3134544927092068E-024
  0.46520000000000006         -3.9606477217164345E-024
  0.46630000000000005         -5.1041958651116069E-024
  0.46740000000000004         -5.3147239072126781E-024
  0.46850000000000003         -4.2827826218099133E-024
  0.46960000000000002         -1.9268736060908317E-024
  0.47070000000000001          1.5312661738639921E-024
  0.47180000000000000          5.5487035982265811E-024
  0.47289999999999999          9.3154146016549485E-024
  0.47400000000000009          1.1881213864295325E-023
  0.47510000000000008          1.2340902042634104E-023
  0.47620000000000007          1.0049127023710516E-023
  0.47730000000000006          4.8261342302518921E-024
  0.47840000000000005         -2.8895530995943308E-024