 -0.12000000000000000          0.0000000000000000     
 -0.11889999999999999          0.0000000000000000     
 -0.11780000000000000          0.0000000000000000     
 -0.11670000000000000          0.0000000000000000     
 -0.11559999999999999          0.0000000000000000     
 -0.11449999999999999          0.0000000000000000     
 -0.11340000000000000          0.0000000000000000     
 -0.11230000000000000          0.0000000000000000     
 -0.11119999999999999          0.0000000000000000     
 -0.11009999999999999          0.0000000000000000     
 -0.10900000000000000          0.0000000000000000     
 -0.10790000000000000          0.0000000000000000     
 -0.10679999999999999          0.0000000000000000     
 -0.10569999999999999          0.0000000000000000     
 -0.10460000000000000          0.0000000000000000     
 -0.10349999999999999          0.0000000000000000     
 -0.10239999999999999          0.0000000000000000     
 -0.10130000000000000          0.0000000000000000     
 -0.10020000000000000          0.0000000000000000     
  -9.9099999999999994E-002     0.0000000000000000     
  -9.7999999999999990E-002     0.0000000000000000     
  -9.6899999999999986E-002     0.0000000000000000     
  -9.5799999999999996E-002     0.0000000000000000     
  -9.4699999999999993E-002     3.1047596998679916E-052
  -9.3599999999999989E-002     2.7385007005850407E-051
  -9.2499999999999999E-002    -2.4211981495973427E-046
  -9.1399999999999995E-002    -1.3720604111240282E-045
  -9.0299999999999991E-002    -4.6005202616419267E-045
  -8.9200000000000002E-002    -8.3617171223468803E-045
  -8.8099999999999984E-002     3.3198146052963572E-045
  -8.6999999999999994E-002     7.1402771409221400E-044
  -8.5899999999999990E-002     2.8164666377451626E-043
  -8.4799999999999986E-002     7.4698695858532242E-043
  -8.3699999999999997E-002     1.4630151669400464E-042
  -8.2599999999999993E-002     1.9693333428254453E-042
  -8.1499999999999989E-002     6.4340549894814497E-043
  -8.0399999999999999E-002    -6.7499848207463980E-042
  -7.9299999999999995E-002    -2.9322017396528790E-041
  -7.8199999999999992E-002    -8.0710043234407183E-041
  -7.7100000000000002E-002    -1.6209255008487243E-040
  -7.5999999999999984E-002    -2.0220916093274799E-040
  -7.4899999999999994E-002     4.8129042419822580E-041
  -7.3799999999999991E-002     1.0367558877763133E-039
  -7.2699999999999987E-002     2.9633461472191342E-039
  -7.1599999999999997E-002     4.4207906908565049E-039
  -7.0499999999999993E-002     6.4263855577098478E-040
  -6.9399999999999989E-002    -1.5378789411234965E-038
  -6.8300000000000000E-002    -4.2648000791753912E-038
  -6.7199999999999996E-002    -5.0082654006222987E-038
  -6.6099999999999992E-002     3.9638592983480725E-038
  -6.5000000000000002E-002     3.0567245818675794E-037
  -6.3899999999999985E-002     6.5567794057064989E-037
  -6.2799999999999995E-002     5.5546648880333097E-037
  -6.1699999999999991E-002    -1.0173309438640373E-036
  -6.0599999999999994E-002    -4.7335532654561298E-036
  -5.9499999999999990E-002    -8.6984725431646633E-036
  -5.8399999999999994E-002    -5.9152096859875517E-036
  -5.7299999999999990E-002     1.4495854635049673E-035
  -5.6199999999999986E-002     5.6147469545874588E-035
  -5.5099999999999996E-002     9.2804559979328375E-035
  -5.3999999999999992E-002     5.0057141876734010E-035
  -5.2899999999999989E-002    -1.6805189960312364E-034
  -5.1799999999999985E-002    -5.6134367800437297E-034
  -5.0699999999999995E-002    -8.4017874357399156E-034
  -4.9599999999999991E-002    -3.2609106413502734E-034
  -4.8499999999999988E-002     1.7144426037924297E-033
  -4.7399999999999998E-002     5.0208175766098754E-033
  -4.6299999999999994E-002     6.8911486020066530E-033
  -4.5199999999999990E-002     1.8288016264897661E-033
  -4.4099999999999986E-002    -1.5259542589524752E-032
  -4.2999999999999997E-002    -4.0880501540785164E-032
  -4.1899999999999993E-002    -5.3166841202955659E-032
  -4.0799999999999989E-002    -1.1734836548054918E-032
  -3.9699999999999985E-002     1.1686090221405759E-031
  -3.8599999999999995E-002     3.0203327055832875E-031
  -3.7499999999999992E-002     3.8783166712684083E-031
  -3.6399999999999988E-002     1.0236483109730035E-031
  -3.5299999999999984E-002    -7.6716952971726015E-031
  -3.4199999999999994E-002    -2.0128956895275371E-030
  -3.3099999999999991E-002    -2.6439372105202353E-030
  -3.1999999999999987E-002    -9.7430924278391985E-031
  -3.0899999999999997E-002     4.3135448426065210E-030
  -2.9799999999999993E-002     1.2069086829499549E-029
  -2.8699999999999989E-002     1.6637017360315093E-029
  -2.7599999999999986E-002     8.3634008845290692E-030
  -2.6499999999999996E-002    -2.0611620280446805E-029
  -2.5399999999999992E-002    -6.5098163649691109E-029
  -2.4299999999999988E-002    -9.5936393604419359E-029
  -2.3199999999999985E-002    -6.2001986958948003E-029
  -2.2099999999999995E-002     8.1259588743549967E-029
  -2.0999999999999991E-002     3.1587355756370407E-028
  -1.9899999999999987E-002     5.0559122616920084E-028
  -1.8799999999999983E-002     3.9976463065726543E-028
  -1.7699999999999994E-002    -2.3892633359794102E-028
  -1.6599999999999990E-002    -1.3757055942777169E-027
  -1.5499999999999986E-002    -2.4338099478575333E-027
  -1.4399999999999996E-002    -2.2750660512056001E-027
  -1.3299999999999992E-002     2.8011014497066382E-028
  -1.2199999999999989E-002     5.3380884908797849E-027
  -1.1099999999999985E-002     1.0697611495493598E-026
  -9.9999999999999950E-003     1.1573333642464127E-026
  -8.8999999999999913E-003     2.5138838230792791E-027
  -7.7999999999999875E-003    -1.8124851194091556E-026
  -6.6999999999999837E-003    -4.2864118676039817E-026
  -5.5999999999999939E-003    -5.3102727125886250E-026
  -4.4999999999999901E-003    -2.5456451061126773E-026
  -3.3999999999999864E-003     5.1532863917476990E-026
  -2.2999999999999826E-003     1.5590373022605973E-025
  -1.1999999999999927E-003     2.2101756329083941E-025
  -9.9999999999988987E-005     1.5385688092755552E-025
   1.0000000000000148E-003    -1.0703171906127958E-025
   2.1000000000000185E-003    -5.1010546989596300E-025
   3.2000000000000084E-003    -8.3661343158014435E-025
   4.3000000000000121E-003    -7.4379840466643821E-025
   5.4000000000000159E-003     4.9431603288954022E-026
   6.5000000000000058E-003     1.4740017192826326E-024
   7.6000000000000234E-003     2.8788003948459380E-024
   8.7000000000000133E-003     3.0958258237336516E-024
   9.8000000000000032E-003     9.8553402973306492E-025
   1.0900000000000021E-002    -3.6094727207162323E-024
   1.2000000000000011E-002    -8.9668658456302827E-024
   1.3100000000000001E-002    -1.1417239666312964E-023
   1.4200000000000018E-002    -6.7910649064915771E-024
   1.5300000000000008E-002     6.6483914061617540E-024
   1.6400000000000026E-002     2.5027003277557868E-023
   1.7500000000000016E-002     3.7774749568601031E-023
   1.8600000000000005E-002     3.0994208919342546E-023
   1.9700000000000023E-002    -4.1842971370399064E-024
   2.0800000000000013E-002    -6.1248219731966030E-023
   2.1900000000000003E-002    -1.1255074381860386E-022
   2.3000000000000020E-002    -1.1571757134504557E-022
   2.4100000000000010E-002    -3.5543434017313000E-023
   2.5200000000000000E-002     1.2486818408220779E-022
   2.6300000000000018E-002     3.0106446497816452E-022
   2.7400000000000008E-002     3.7479602664053371E-022
   2.8500000000000025E-002     2.2618518382199222E-022
   2.9600000000000015E-002    -1.7976852179940260E-022
   3.0700000000000005E-002    -7.1441841387133996E-022
   3.1800000000000023E-002    -1.0767688674151864E-021
   3.2900000000000013E-002    -9.0392775330173588E-022
   3.4000000000000002E-002     7.2789520268848169E-024
   3.5100000000000020E-002     1.4606237747869016E-021
   3.6200000000000010E-002     2.7634244151168704E-021
   3.7300000000000028E-002     2.9239276664813524E-021
   3.8400000000000017E-002     1.1723335276190330E-021
   3.9500000000000007E-002    -2.3779277180616221E-021
   4.0600000000000025E-002    -6.3132157581546955E-021
   4.1700000000000015E-002    -8.1724516967453254E-021
   4.2800000000000005E-002    -5.5598028202475667E-021
   4.3900000000000022E-002     2.1869691842599656E-021
   4.5000000000000012E-002     1.2622291334517145E-020
   4.6100000000000002E-002     2.0206509044922177E-020
   4.7200000000000020E-002     1.8419047587570935E-020
   4.8300000000000010E-002     3.6170630405320735E-021
   4.9400000000000027E-002    -2.1077123696410330E-020
   5.0500000000000017E-002    -4.4454440051787369E-020
   5.1600000000000007E-002    -5.0615259611390282E-020
   5.2700000000000025E-002    -2.7128370364774305E-020
   5.3800000000000014E-002     2.5154347112335140E-020
   5.4900000000000004E-002     8.6313311548215666E-020
   5.6000000000000022E-002     1.2130518726523632E-019
   5.7100000000000012E-002     9.5580920351880018E-020
   5.8200000000000002E-002    -2.4345876334009077E-021
   5.9300000000000019E-002    -1.4347680495644600E-019
   6.0400000000000009E-002    -2.5781005128435201E-019
   6.1500000000000027E-002    -2.6167252293704705E-019
   6.2600000000000017E-002    -1.0424729749576126E-019
   6.3700000000000007E-002     1.8598330039204239E-019
   6.4800000000000024E-002     4.8527596450349132E-019
   6.5900000000000014E-002     6.1200585131384746E-019
   6.7000000000000004E-002     4.1599678857196524E-019
   6.8100000000000022E-002    -1.1505889285689407E-019
   6.9200000000000012E-002    -7.9190769008083135E-019
   7.0300000000000029E-002    -1.2597481653202002E-018
   7.1400000000000019E-002    -1.1510610650906759E-018
   7.2500000000000009E-002    -3.0614031400614599E-019
   7.3600000000000027E-002     1.0489179425947825E-018
   7.4700000000000016E-002     2.2927572669535664E-018
   7.5800000000000006E-002     2.6372092416244933E-018
   7.6900000000000024E-002     1.5423306161094201E-018
   7.8000000000000014E-002    -8.6673872050621420E-019
   7.9100000000000004E-002    -3.6341015814088383E-018
   8.0200000000000021E-002    -5.2491273719660598E-018
   8.1300000000000011E-002    -4.3534932135297122E-018
   8.2400000000000029E-002    -6.0344567778935321E-019
   8.3500000000000019E-002     4.7775849975538543E-018
   8.4600000000000009E-002     9.1926342714129673E-018
   8.5700000000000026E-002     9.7459868425795344E-018
   8.6800000000000016E-002     4.8504357132326738E-018
   8.7900000000000006E-002    -4.4144182820931397E-018
   8.9000000000000024E-002    -1.4078856941687095E-017
   9.0100000000000013E-002    -1.8688795717077863E-017
   9.1200000000000003E-002    -1.4023769325930495E-017
   9.2300000000000021E-002     6.5533812963064160E-020
   9.3400000000000011E-002     1.8330856479297740E-017
   9.4500000000000028E-002     3.1547072857161735E-017
   9.5600000000000018E-002     3.0671535408986368E-017
   9.6700000000000008E-002     1.2123320815828883E-017
   9.7800000000000026E-002    -1.8567525580355888E-017
   9.8900000000000016E-002    -4.7335407926967443E-017
  0.10000000000000001         -5.7252573192786027E-017
  0.10110000000000002         -3.7452013173233345E-017
  0.10220000000000001          8.9561074318438921E-018
  0.10330000000000003          6.2826859990240879E-017
  0.10440000000000002          9.5571985272934761E-017
  0.10550000000000001          8.2948184235328889E-017
  0.10660000000000003          2.0048022763645566E-017
  0.10770000000000002         -7.0785373039734251E-017
  0.10880000000000001         -1.4550833049070188E-016
  0.10990000000000003         -1.5772059088408166E-016
  0.11100000000000002         -8.4326234609751466E-017
  0.11210000000000001          5.5471031958319579E-017
  0.11320000000000002          2.0028755972263354E-016
  0.11430000000000001          2.7047847800357862E-016
  0.11540000000000003          2.0820739744180616E-016
  0.11650000000000002          1.5044803533256582E-017
  0.11760000000000001         -2.3457966622756033E-016
  0.11870000000000003         -4.1728036957890159E-016
  0.11980000000000002         -4.1731969039863839E-016
  0.12090000000000001         -1.9193125716464642E-016
  0.12200000000000003          1.8885287128550762E-016
  0.12310000000000001          5.5546121376165920E-016
  0.12420000000000003          7.0927643322410194E-016
  0.12530000000000002          5.2377001579426354E-016
  0.12640000000000001          2.7272894181053961E-017
  0.12750000000000003         -5.8147742393685867E-016
  0.12860000000000002         -1.0066793608932494E-015
  0.12970000000000001         -9.9485179776005436E-016
  0.13080000000000003         -4.7692918139037878E-016
  0.13190000000000002          3.6345465974306595E-016
  0.13300000000000001          1.1454522099099043E-015
  0.13410000000000000          1.4612868216754981E-015
  0.13520000000000004          1.0879549239154334E-015
  0.13630000000000003          1.3193646889681843E-016
  0.13740000000000002         -9.8242164818817622E-016
  0.13850000000000001         -1.6982649390371452E-015
  0.13960000000000000         -1.6092042802369648E-015
  0.14070000000000005         -6.9753873107477666E-016
  0.14180000000000004          6.1151513242731733E-016
  0.14290000000000003          1.6363533459979330E-015
  0.14400000000000002          1.7947582159208420E-015
  0.14510000000000001          9.4903221279180020E-016
  0.14620000000000000         -4.6185027677751153E-016
  0.14730000000000004         -1.6137471555970827E-015
  0.14840000000000003         -1.7503107056501862E-015
  0.14950000000000002         -6.6768686931251056E-016
  0.15060000000000001          1.0608727967350054E-015
  0.15170000000000000          2.3112027779275189E-015
  0.15280000000000005          2.0384667170614489E-015
  0.15390000000000004          4.1130032909040880E-018
  0.15500000000000003         -2.8401638403380329E-015
  0.15610000000000002         -4.6463722887583891E-015
  0.15720000000000001         -3.6418122749742274E-015
  0.15830000000000000          6.4306246082603735E-016
  0.15940000000000004          6.5891746763082592E-015
  0.16050000000000003          1.0776450684027295E-014
  0.16160000000000002          9.5116737770262061E-015
  0.16270000000000001          1.0701890275673582E-015
  0.16380000000000000         -1.2459123969312454E-014
  0.16490000000000005         -2.4947442998034127E-014
  0.16600000000000004         -2.8287901786733411E-014
  0.16710000000000003         -1.6329423351151639E-014
  0.16820000000000002          1.0899476793649180E-014
  0.16930000000000001          4.4893017953883757E-014
  0.17040000000000000          7.0138525598225156E-014
  0.17150000000000004          6.9753357759907654E-014
  0.17260000000000003          3.3654092285482958E-014
  0.17370000000000002         -3.4106152297262509E-014
  0.17480000000000001         -1.1268502560610457E-013
  0.17590000000000000         -1.6905740429418370E-013
  0.17700000000000005         -1.6964091634116304E-013
  0.17810000000000004         -9.5365706841411984E-014
  0.17920000000000003          4.5782043263807696E-014
  0.18030000000000002          2.1488568218967121E-013
  0.18140000000000001          3.5050153566754291E-013
  0.18250000000000000          3.8837351250876027E-013
  0.18360000000000004          2.8655313033526685E-013
  0.18470000000000003          4.6783242149818545E-014
  0.18580000000000002         -2.7693148574895973E-013
  0.18690000000000001         -5.8790881126420275E-013
  0.18800000000000000         -7.7358925598833922E-013
  0.18910000000000005         -7.4206203308670238E-013
  0.19020000000000004         -4.5654749701580819E-013
  0.19130000000000003          4.4163994088777332E-014
  0.19240000000000002          6.4725243875016009E-013
  0.19350000000000001          1.1903762590274706E-012
  0.19460000000000005          1.5028258992797842E-012
  0.19570000000000004          1.4519291183117410E-012
  0.19680000000000003          9.8211762607575293E-013
  0.19790000000000002          1.3682368844535917E-013
  0.19900000000000001         -9.4135566243205271E-013
  0.20010000000000000         -2.0312278602702466E-012
  0.20120000000000005         -2.8694487233068503E-012
  0.20230000000000004         -3.1967248513311425E-012
  0.20340000000000003         -2.8084489146391646E-012
  0.20450000000000002         -1.6056301559398503E-012
  0.20560000000000000          3.5830106077222913E-013
  0.20670000000000005          2.8420265573850505E-012
  0.20780000000000004          5.4040925020699679E-012
  0.20890000000000003          7.4298534845772917E-012
  0.21000000000000002          8.2134226560390000E-012
  0.21110000000000001          7.1025053811768351E-012
  0.21220000000000000          3.6966193247984572E-012
  0.21330000000000005         -1.9355952834181642E-012
  0.21440000000000003         -9.0802104187948178E-012
  0.21550000000000002         -1.6320051670678175E-011
  0.21660000000000001         -2.1668239196022627E-011
  0.21770000000000000         -2.2933633069809283E-011
  0.21880000000000005         -1.8295812499626829E-011
  0.21990000000000004         -6.9855915661640668E-012
  0.22100000000000003          1.0110258180542329E-011
  0.22210000000000002          3.0143570673101180E-011
  0.22320000000000001          4.8500097053237071E-011
  0.22430000000000000          5.9596322213300556E-011
  0.22540000000000004          5.8209771533387930E-011
  0.22650000000000003          4.1078670052684099E-011
  0.22760000000000002          8.3465429577393266E-012
  0.22870000000000001         -3.5629597146311820E-011
  0.22980000000000000         -8.2495581379836026E-011
  0.23090000000000005         -1.2128458386765527E-010
  0.23200000000000004         -1.4077293750730832E-010
  0.23310000000000003         -1.3227648159502750E-010
  0.23420000000000002         -9.2150320911891575E-011
  0.23530000000000001         -2.3267691730209136E-011
  0.23640000000000000          6.4989501183695388E-011
  0.23750000000000004          1.5826266030327020E-010
  0.23860000000000003          2.3983974661458415E-010
  0.23970000000000002          2.9361742174491905E-010
  0.24080000000000001          3.0660805570428273E-010
  0.24190000000000000          2.7047203013536815E-010
  0.24300000000000005          1.8204597197499685E-010
  0.24410000000000004          4.3334203122634712E-011
  0.24520000000000003         -1.3830832408519606E-010
  0.24630000000000002         -3.4922595121747968E-010
  0.24740000000000001         -5.6774543546915375E-010
  0.24850000000000005         -7.6250405848652221E-010
  0.24960000000000004         -8.9233178282120249E-010
  0.25070000000000003         -9.0939559661216230E-010
  0.25180000000000002         -7.6675318304698106E-010
  0.25290000000000001         -4.3014488068545371E-010
  0.25400000000000000          1.0789663542144617E-010
  0.25510000000000005          8.1514362969591174E-010
  0.25620000000000004          1.6123079551228238E-009
  0.25730000000000003          2.3750766120081125E-009
  0.25840000000000002          2.9475789271389538E-009
  0.25950000000000001          3.1664988600833439E-009
  0.26060000000000005          2.8920529936850591E-009
  0.26170000000000004          2.0398101313146168E-009
  0.26280000000000003          6.0662504557601896E-010
  0.26390000000000002         -1.3149109507863397E-009
  0.26500000000000001         -3.5364663432309630E-009
  0.26610000000000000         -5.7881006269226164E-009
  0.26720000000000005         -7.7434152599349250E-009
  0.26830000000000004         -9.0511821179127215E-009
  0.26940000000000003         -9.3692804287584323E-009
  0.27050000000000002         -8.3985130441450559E-009
  0.27160000000000001         -5.9160797843975345E-009
  0.27270000000000005         -1.8098541702361279E-009
  0.27380000000000004          3.8856562235291215E-009
  0.27490000000000003          1.0952929695386281E-008
  0.27600000000000002          1.8959014817565729E-008
  0.27710000000000001          2.7234085801154643E-008
  0.27820000000000000          3.4868303174957678E-008
  0.27930000000000005          4.0731347786655384E-008
  0.28040000000000004          4.3512731434899231E-008
  0.28150000000000003          4.1772916975235009E-008
  0.28260000000000002          3.3988275079083242E-008
  0.28370000000000001          1.8569312579136628E-008
  0.28480000000000005         -6.1660177975545922E-009
  0.28590000000000004         -4.2074344860187111E-008
  0.28700000000000003         -9.1323046194311513E-008
  0.28810000000000002         -1.5656801731303260E-007
  0.28920000000000001         -2.4115359070802072E-007
  0.29030000000000000         -3.4931607415383210E-007
  0.29140000000000005         -4.8638137214496894E-007
  0.29250000000000004         -6.5896257541510230E-007
  0.29360000000000003         -8.7517988397147996E-007
  0.29470000000000002         -1.1449367203600250E-006
  0.29580000000000001         -1.4802869666034394E-006
  0.29690000000000005         -1.8959214962715909E-006
  0.29800000000000004         -2.4097813335418742E-006
  0.29910000000000003         -3.0437877255049526E-006
  0.30020000000000002         -3.8246650962838666E-006
  0.30130000000000001         -4.7848285401766742E-006
  0.30240000000000000         -5.9633285250530829E-006
  0.30350000000000005         -7.4068528715921540E-006
  0.30460000000000004         -9.1708352286628183E-006
  0.30570000000000003         -1.1320721619935014E-005
  0.30680000000000002         -1.3933475178557147E-005
  0.30790000000000001         -1.7099350749155177E-005
  0.30900000000000005         -2.0923985979545896E-005
  0.31010000000000004         -2.5530774117661108E-005
  0.31120000000000003         -3.1063490392046595E-005
  0.31230000000000002         -3.7689118559187883E-005
  0.31340000000000001         -4.5600790778381074E-005
  0.31450000000000006         -5.5020858992308549E-005
  0.31560000000000005         -6.6204121229153959E-005
  0.31670000000000004         -7.9441190068593840E-005
  0.31780000000000003         -9.5062124977008321E-005
  0.31890000000000002         -1.1344030941626496E-004
  0.32000000000000001         -1.3499653735907352E-004
  0.32110000000000005         -1.6020325184890351E-004
  0.32220000000000004         -1.8958883766948708E-004
  0.32330000000000003         -2.2374163918187991E-004
  0.32440000000000002         -2.6331372785095658E-004
  0.32550000000000001         -3.0902402380291632E-004
  0.32660000000000006         -3.6166098842595125E-004
  0.32770000000000005         -4.2208437972284212E-004
  0.32880000000000004         -4.9122648652395740E-004
  0.32990000000000003         -5.7009236719100104E-004
  0.33100000000000002         -6.5975916841157635E-004
  0.33210000000000001         -7.6137427115541951E-004
  0.33320000000000005         -8.7615160515208863E-004
  0.33430000000000004         -1.0053664210131347E-003
  0.33540000000000003         -1.1503482549378651E-003
  0.33650000000000002         -1.3124701069279180E-003
  0.33760000000000001         -1.4931366949885699E-003
  0.33870000000000006         -1.6937685941351061E-003
  0.33980000000000005         -1.9157847028152108E-003
  0.34090000000000004         -2.1605818654030790E-003
  0.34200000000000003         -2.4295111845780135E-003
  0.34310000000000002         -2.7238530784548043E-003
  0.34420000000000001         -3.0447886560838952E-003
  0.34530000000000005         -3.3933683778494456E-003
  0.34640000000000004         -3.7704788529227947E-003
  0.34750000000000003         -4.1768058783732166E-003
  0.34860000000000002         -4.6127959860020771E-003
  0.34970000000000001         -5.0786183053882043E-003
  0.35080000000000006         -5.5741225576992149E-003
  0.35190000000000005         -6.0987998827136359E-003
  0.35300000000000004         -6.6517426240445881E-003
  0.35410000000000003         -7.2316079401443271E-003
  0.35520000000000002         -7.8365803927148286E-003
  0.35630000000000001         -8.4643454186648058E-003
  0.35740000000000005         -9.1120594176262275E-003
  0.35850000000000004         -9.7763256390954456E-003
  0.35960000000000003         -1.0453185259635168E-002
  0.36070000000000002         -1.1138104839917309E-002
  0.36180000000000001         -1.1825978802078708E-002
  0.36290000000000006         -1.2511141714718682E-002
  0.36400000000000005         -1.3187385058770673E-002
  0.36510000000000004         -1.3847991801533708E-002
  0.36620000000000003         -1.4485781260004464E-002
  0.36730000000000002         -1.5093160823902784E-002
  0.36840000000000006         -1.5662197818233387E-002
  0.36950000000000005         -1.6184690846103422E-002
  0.37060000000000004         -1.6652269022014429E-002
  0.37170000000000003         -1.7056479776262238E-002
  0.37280000000000002         -1.7388905621396503E-002
  0.37390000000000001         -1.7641277607133469E-002
  0.37500000000000006         -1.7805603683184928E-002
  0.37610000000000005         -1.7874295950080173E-002
  0.37720000000000004         -1.7840301969736006E-002
  0.37830000000000003         -1.7697242487517084E-002
  0.37940000000000002         -1.7439532236870010E-002
  0.38050000000000006         -1.7062515980434970E-002
  0.38160000000000005         -1.6562580444779824E-002
  0.38270000000000004         -1.5937265807353541E-002
  0.38380000000000003         -1.5185354800432038E-002
  0.38490000000000002         -1.4306964130579823E-002
  0.38600000000000001         -1.3303603423688885E-002
  0.38710000000000000         -1.2178224345972365E-002
  0.38819999999999999         -1.0935242743631838E-002
  0.38930000000000009         -9.5805482530598157E-003
  0.39040000000000008         -8.1214766420444114E-003
  0.39150000000000007         -6.5667727317868397E-003
  0.39260000000000006         -4.9265178395305875E-003
  0.39370000000000005         -3.2120400924056133E-003
  0.39480000000000004         -1.4358008698136847E-003
  0.39590000000000003          3.8874054329533910E-004
  0.39700000000000002          2.2472814382807774E-003
  0.39810000000000001          4.1248460937611010E-003
  0.39920000000000000          6.0059705427641195E-003
  0.40029999999999999          7.8748976154057911E-003
  0.40140000000000009          9.7157841870513604E-003
  0.40250000000000008          1.1512902935890733E-002
  0.40360000000000007          1.3250858387031498E-002
  0.40470000000000006          1.4914786473422238E-002
  0.40580000000000005          1.6490560882503245E-002
  0.40690000000000004          1.7964978959747763E-002
  0.40800000000000003          1.9325934869145113E-002
  0.40910000000000002          2.0562580820293764E-002
  0.41020000000000001          2.1665452658888831E-002
  0.41130000000000000          2.2626594323128510E-002
  0.41239999999999999          2.3439642963156791E-002
  0.41350000000000009          2.4099888435328579E-002
  0.41460000000000008          2.4604327669722002E-002
  0.41570000000000007          2.4951664220144949E-002
  0.41680000000000006          2.5142297480121322E-002
  0.41790000000000005          2.5178289489166079E-002
  0.41900000000000004          2.5063292347741187E-002
  0.42010000000000003          2.4802463880860832E-002
  0.42120000000000002          2.4402364447227435E-002
  0.42230000000000001          2.3870821251523323E-002
  0.42340000000000000          2.3216787819191502E-002
  0.42449999999999999          2.2450187439187381E-002
  0.42560000000000009          2.1581751987451648E-002
  0.42670000000000008          2.0622853123065599E-002
  0.42780000000000007          1.9585323725712957E-002
  0.42890000000000006          1.8481292845366541E-002
  0.43000000000000005          1.7323014605006386E-002
  0.43110000000000004          1.6122704208045315E-002
  0.43220000000000003          1.4892388184355863E-002
  0.43330000000000002          1.3643759365474741E-002
  0.43440000000000001          1.2388045205270136E-002
  0.43550000000000000          1.1135891933904957E-002
  0.43659999999999999          9.8972634032067578E-003
  0.43770000000000009          8.6813534564647941E-003
  0.43880000000000008          7.4965230406637308E-003
  0.43990000000000007          6.3502470596791113E-003
  0.44100000000000006          5.2490818443001498E-003
  0.44210000000000005          4.1986473745466114E-003
  0.44320000000000004          3.2036241117367466E-003
  0.44430000000000003          2.2677658435574849E-003
  0.44540000000000002          1.3939241616541991E-003
  0.44650000000000001          5.8408541693544887E-004
  0.44760000000000000         -1.6058373244967063E-004
  0.44869999999999999         -8.3968291498530542E-004
  0.44980000000000009         -1.4535182320461438E-003
  0.45090000000000008         -2.0030373257520287E-003
  0.45200000000000007         -2.4897604601430983E-003
  0.45310000000000006         -2.9157094510379798E-003
  0.45420000000000005         -3.2833338546341948E-003
  0.45530000000000004         -3.5954390379018099E-003
  0.45640000000000003         -3.8551162940625456E-003
  0.45750000000000002         -4.0656749947085517E-003
  0.45860000000000001         -4.2305783212358318E-003
  0.45970000000000000         -4.3533869241072489E-003
  0.46079999999999999         -4.4377038377577957E-003
  0.46190000000000009         -4.4871247852149663E-003
  0.46300000000000008         -4.5051968506791204E-003
  0.46410000000000007         -4.4953781112642578E-003
  0.46520000000000006         -4.4610053868920987E-003
  0.46630000000000005         -4.4052681844602383E-003
  0.46740000000000004         -4.3311875438316397E-003
  0.46850000000000003         -4.2415976585921649E-003
  0.46960000000000002         -4.1391350179170242E-003
  0.47070000000000001         -4.0262310829354258E-003
  0.47180000000000000         -3.9051076590683612E-003
  0.47289999999999999         -3.7777773948604546E-003
  0.47400000000000009         -3.6460471447926183E-003
  0.47510000000000008         -3.5115223302909925E-003
  0.47620000000000007         -3.3756152124303474E-003
  0.47730000000000006         -3.2395535993088205E-003
  0.47840000000000005         -3.1043914342984745E-003