 -0.12000000000000000          0.0000000000000000     
 -0.11889999999999999          0.0000000000000000     
 -0.11780000000000000          0.0000000000000000     
 -0.11670000000000000          0.0000000000000000     
 -0.11559999999999999          0.0000000000000000     
 -0.11449999999999999          0.0000000000000000     
 -0.11340000000000000          0.0000000000000000     
 -0.11230000000000000          0.0000000000000000     
 -0.11119999999999999          0.0000000000000000     
 -0.11009999999999999          0.0000000000000000     
 -0.10900000000000000          0.0000000000000000     
 -0.10790000000000000          0.0000000000000000     
 -0.10679999999999999          0.0000000000000000     
 -0.10569999999999999          0.0000000000000000     
 -0.10460000000000000          0.0000000000000000     
 -0.10349999999999999          0.0000000000000000     
 -0.10239999999999999          0.0000000000000000     
 -0.10130000000000000          0.0000000000000000     
 -0.10020000000000000          0.0000000000000000     
  -9.9099999999999994E-002     0.0000000000000000     
  -9.7999999999999990E-002     0.0000000000000000     
  -9.6899999999999986E-002     0.0000000000000000     
  -9.5799999999999996E-002     0.0000000000000000     
  -9.4699999999999993E-002     0.0000000000000000     
  -9.3599999999999989E-002     0.0000000000000000     
  -9.2499999999999999E-002     0.0000000000000000     
  -9.1399999999999995E-002     0.0000000000000000     
  -9.0299999999999991E-002     0.0000000000000000     
  -8.9200000000000002E-002     0.0000000000000000     
  -8.8099999999999984E-002     0.0000000000000000     
  -8.6999999999999994E-002     0.0000000000000000     
  -8.5899999999999990E-002     0.0000000000000000     
  -8.4799999999999986E-002     0.0000000000000000     
  -8.3699999999999997E-002     0.0000000000000000     
  -8.2599999999999993E-002     0.0000000000000000     
  -8.1499999999999989E-002     0.0000000000000000     
  -8.0399999999999999E-002     0.0000000000000000     
  -7.9299999999999995E-002     0.0000000000000000     
  -7.8199999999999992E-002     0.0000000000000000     
  -7.7100000000000002E-002     0.0000000000000000     
  -7.5999999999999984E-002     0.0000000000000000     
  -7.4899999999999994E-002     0.0000000000000000     
  -7.3799999999999991E-002     0.0000000000000000     
  -7.2699999999999987E-002     0.0000000000000000     
  -7.1599999999999997E-002     0.0000000000000000     
  -7.0499999999999993E-002     0.0000000000000000     
  -6.9399999999999989E-002     0.0000000000000000     
  -6.8300000000000000E-002     0.0000000000000000     
  -6.7199999999999996E-002     0.0000000000000000     
  -6.6099999999999992E-002     0.0000000000000000     
  -6.5000000000000002E-002     0.0000000000000000     
  -6.3899999999999985E-002     0.0000000000000000     
  -6.2799999999999995E-002     0.0000000000000000     
  -6.1699999999999991E-002     0.0000000000000000     
  -6.0599999999999994E-002     0.0000000000000000     
  -5.9499999999999990E-002     0.0000000000000000     
  -5.8399999999999994E-002     0.0000000000000000     
  -5.7299999999999990E-002     0.0000000000000000     
  -5.6199999999999986E-002     0.0000000000000000     
  -5.5099999999999996E-002     0.0000000000000000     
  -5.3999999999999992E-002     0.0000000000000000     
  -5.2899999999999989E-002     0.0000000000000000     
  -5.1799999999999985E-002     0.0000000000000000     
  -5.0699999999999995E-002     0.0000000000000000     
  -4.9599999999999991E-002     0.0000000000000000     
  -4.8499999999999988E-002     0.0000000000000000     
  -4.7399999999999998E-002     0.0000000000000000     
  -4.6299999999999994E-002     0.0000000000000000     
  -4.5199999999999990E-002     0.0000000000000000     
  -4.4099999999999986E-002     0.0000000000000000     
  -4.2999999999999997E-002     0.0000000000000000     
  -4.1899999999999993E-002     0.0000000000000000     
  -4.0799999999999989E-002     0.0000000000000000     
  -3.9699999999999985E-002     0.0000000000000000     
  -3.8599999999999995E-002     0.0000000000000000     
  -3.7499999999999992E-002     0.0000000000000000     
  -3.6399999999999988E-002     0.0000000000000000     
  -3.5299999999999984E-002     0.0000000000000000     
  -3.4199999999999994E-002     0.0000000000000000     
  -3.3099999999999991E-002     0.0000000000000000     
  -3.1999999999999987E-002     0.0000000000000000     
  -3.0899999999999997E-002     0.0000000000000000     
  -2.9799999999999993E-002     0.0000000000000000     
  -2.8699999999999989E-002     0.0000000000000000     
  -2.7599999999999986E-002     0.0000000000000000     
  -2.6499999999999996E-002     0.0000000000000000     
  -2.5399999999999992E-002     0.0000000000000000     
  -2.4299999999999988E-002     0.0000000000000000     
  -2.3199999999999985E-002     0.0000000000000000     
  -2.2099999999999995E-002     0.0000000000000000     
  -2.0999999999999991E-002     0.0000000000000000     
  -1.9899999999999987E-002     0.0000000000000000     
  -1.8799999999999983E-002     0.0000000000000000     
  -1.7699999999999994E-002     0.0000000000000000     
  -1.6599999999999990E-002     0.0000000000000000     
  -1.5499999999999986E-002     0.0000000000000000     
  -1.4399999999999996E-002     0.0000000000000000     
  -1.3299999999999992E-002     0.0000000000000000     
  -1.2199999999999989E-002     0.0000000000000000     
  -1.1099999999999985E-002     0.0000000000000000     
  -9.9999999999999950E-003     0.0000000000000000     
  -8.8999999999999913E-003     0.0000000000000000     
  -7.7999999999999875E-003     0.0000000000000000     
  -6.6999999999999837E-003     0.0000000000000000     
  -5.5999999999999939E-003     0.0000000000000000     
  -4.4999999999999901E-003     0.0000000000000000     
  -3.3999999999999864E-003     0.0000000000000000     
  -2.2999999999999826E-003     0.0000000000000000     
  -1.1999999999999927E-003     0.0000000000000000     
  -9.9999999999988987E-005     0.0000000000000000     
   1.0000000000000148E-003     0.0000000000000000     
   2.1000000000000185E-003     0.0000000000000000     
   3.2000000000000084E-003     0.0000000000000000     
   4.3000000000000121E-003     0.0000000000000000     
   5.4000000000000159E-003     0.0000000000000000     
   6.5000000000000058E-003     0.0000000000000000     
   7.6000000000000234E-003     0.0000000000000000     
   8.7000000000000133E-003     0.0000000000000000     
   9.8000000000000032E-003     0.0000000000000000     
   1.0900000000000021E-002     0.0000000000000000     
   1.2000000000000011E-002     0.0000000000000000     
   1.3100000000000001E-002     0.0000000000000000     
   1.4200000000000018E-002     0.0000000000000000     
   1.5300000000000008E-002     0.0000000000000000     
   1.6400000000000026E-002     0.0000000000000000     
   1.7500000000000016E-002     0.0000000000000000     
   1.8600000000000005E-002     0.0000000000000000     
   1.9700000000000023E-002     0.0000000000000000     
   2.0800000000000013E-002     0.0000000000000000     
   2.1900000000000003E-002     0.0000000000000000     
   2.3000000000000020E-002     0.0000000000000000     
   2.4100000000000010E-002     0.0000000000000000     
   2.5200000000000000E-002     0.0000000000000000     
   2.6300000000000018E-002     0.0000000000000000     
   2.7400000000000008E-002     0.0000000000000000     
   2.8500000000000025E-002     0.0000000000000000     
   2.9600000000000015E-002     0.0000000000000000     
   3.0700000000000005E-002     0.0000000000000000     
   3.1800000000000023E-002     0.0000000000000000     
   3.2900000000000013E-002     0.0000000000000000     
   3.4000000000000002E-002     0.0000000000000000     
   3.5100000000000020E-002     0.0000000000000000     
   3.6200000000000010E-002     0.0000000000000000     
   3.7300000000000028E-002     0.0000000000000000     
   3.8400000000000017E-002     0.0000000000000000     
   3.9500000000000007E-002     0.0000000000000000     
   4.0600000000000025E-002     0.0000000000000000     
   4.1700000000000015E-002     0.0000000000000000     
   4.2800000000000005E-002     0.0000000000000000     
   4.3900000000000022E-002     0.0000000000000000     
   4.5000000000000012E-002     0.0000000000000000     
   4.6100000000000002E-002     0.0000000000000000     
   4.7200000000000020E-002     0.0000000000000000     
   4.8300000000000010E-002     0.0000000000000000     
   4.9400000000000027E-002     0.0000000000000000     
   5.0500000000000017E-002     0.0000000000000000     
   5.1600000000000007E-002     0.0000000000000000     
   5.2700000000000025E-002     0.0000000000000000     
   5.3800000000000014E-002     0.0000000000000000     
   5.4900000000000004E-002     0.0000000000000000     
   5.6000000000000022E-002     0.0000000000000000     
   5.7100000000000012E-002     0.0000000000000000     
   5.8200000000000002E-002     0.0000000000000000     
   5.9300000000000019E-002     0.0000000000000000     
   6.0400000000000009E-002     0.0000000000000000     
   6.1500000000000027E-002     0.0000000000000000     
   6.2600000000000017E-002     0.0000000000000000     
   6.3700000000000007E-002     0.0000000000000000     
   6.4800000000000024E-002     0.0000000000000000     
   6.5900000000000014E-002     0.0000000000000000     
   6.7000000000000004E-002     0.0000000000000000     
   6.8100000000000022E-002     0.0000000000000000     
   6.9200000000000012E-002     0.0000000000000000     
   7.0300000000000029E-002     0.0000000000000000     
   7.1400000000000019E-002     0.0000000000000000     
   7.2500000000000009E-002     0.0000000000000000     
   7.3600000000000027E-002     0.0000000000000000     
   7.4700000000000016E-002     0.0000000000000000     
   7.5800000000000006E-002     0.0000000000000000     
   7.6900000000000024E-002     0.0000000000000000     
   7.8000000000000014E-002     0.0000000000000000     
   7.9100000000000004E-002     0.0000000000000000     
   8.0200000000000021E-002     0.0000000000000000     
   8.1300000000000011E-002     0.0000000000000000     
   8.2400000000000029E-002     0.0000000000000000     
   8.3500000000000019E-002     0.0000000000000000     
   8.4600000000000009E-002     0.0000000000000000     
   8.5700000000000026E-002     0.0000000000000000     
   8.6800000000000016E-002     0.0000000000000000     
   8.7900000000000006E-002     0.0000000000000000     
   8.9000000000000024E-002     0.0000000000000000     
   9.0100000000000013E-002     0.0000000000000000     
   9.1200000000000003E-002     0.0000000000000000     
   9.2300000000000021E-002     0.0000000000000000     
   9.3400000000000011E-002     0.0000000000000000     
   9.4500000000000028E-002     0.0000000000000000     
   9.5600000000000018E-002     0.0000000000000000     
   9.6700000000000008E-002     0.0000000000000000     
   9.7800000000000026E-002     0.0000000000000000     
   9.8900000000000016E-002     8.6499905849710137E-047
  0.10000000000000001          1.7299981169942027E-046
  0.10110000000000002          3.4599962339884055E-046
  0.10220000000000001          1.7299981169942027E-046
  0.10330000000000003         -1.7299981169942027E-046
  0.10440000000000002         -6.9199924679768110E-046
  0.10550000000000001         -8.6499905849710137E-046
  0.10660000000000003         -5.1899943509826082E-046
  0.10770000000000002          7.9138239013390591E-046
  0.10880000000000001          2.7072635563140436E-045
  0.10990000000000003          4.1906451932456306E-045
  0.11100000000000002          3.2004965164392751E-045
  0.11210000000000001         -3.7851565406333745E-046
  0.11320000000000002         -7.1682078146818807E-045
  0.11430000000000001         -1.5607531868239964E-044
  0.11540000000000003         -1.7260597595640794E-044
  0.11650000000000002         -3.6104144830814857E-045
  0.11760000000000001          3.2926542945429566E-044
  0.11870000000000003          8.6530849490807589E-044
  0.11980000000000002          1.1926326623614922E-043
  0.12090000000000001          6.8654530659549461E-044
  0.12200000000000003         -1.2058818149094518E-043
  0.12310000000000001         -4.1426461635072222E-043
  0.12420000000000003         -6.1968138406681744E-043
  0.12530000000000002         -4.1647049861651332E-043
  0.12640000000000001          4.4601003849042515E-043
  0.12750000000000003          1.7999307523579873E-042
  0.12860000000000002          2.7836597749613418E-042
  0.12970000000000001          2.0111584010081754E-042
  0.13080000000000003         -1.5631283832111541E-042
  0.13190000000000002         -7.2615902428951081E-042
  0.13300000000000001         -1.1668194017186269E-041
  0.13410000000000000         -9.2837419672185873E-042
  0.13520000000000004          4.2199895588824735E-042
  0.13630000000000003          2.6859690867849764E-041
  0.13740000000000002          4.6345330079850082E-041
  0.13850000000000001          4.1858944581914285E-041
  0.13960000000000000         -4.9142647991059033E-042
  0.14070000000000005         -9.1172597283188611E-041
  0.14180000000000004         -1.7643195819222647E-040
  0.14290000000000003         -1.8420927709313610E-040
  0.14400000000000002         -3.6472858081183426E-041
  0.14510000000000001          2.7991077220748870E-040
  0.14620000000000000          6.4335513083248122E-040
  0.14730000000000004          7.8108395641422624E-040
  0.14840000000000003          3.6771306312242146E-040
  0.14950000000000002         -7.4236224206183126E-040
  0.15060000000000001         -2.2274535819124777E-039
  0.15170000000000000         -3.1527111666104911E-039
  0.15280000000000005         -2.2185660924835477E-039
  0.15390000000000004          1.4551099497535768E-039
  0.15500000000000003          7.2013827800103581E-039
  0.15610000000000002          1.1994731159633031E-038
  0.15720000000000001          1.0930351607145210E-038
  0.15830000000000000         -2.7670162226144107E-040
  0.15940000000000004         -2.1131041206730352E-038
  0.16050000000000003         -4.2618679437304370E-038
  0.16160000000000002         -4.7406136048560107E-038
  0.16270000000000001         -1.7161176086265993E-038
  0.16380000000000000          5.3110499368805087E-038
  0.16490000000000005          1.3974690566832590E-037
  0.16600000000000004          1.8593720901429861E-037
  0.16710000000000003          1.2057618980306311E-037
  0.16820000000000002         -9.5967345143705066E-038
  0.16930000000000001         -4.1452736223347405E-037
  0.17040000000000000         -6.6498793274445343E-037
  0.17150000000000004         -5.9461805570937896E-037
  0.17260000000000003         -1.5293630746769218E-039
  0.17370000000000002          1.0677986571344688E-036
  0.17480000000000001          2.1613457797462215E-036
  0.17590000000000000          2.4565790795896609E-036
  0.17700000000000005          1.1057398267865536E-036
  0.17810000000000004         -2.1388472684644102E-036
  0.17920000000000003         -6.2833180525379533E-036
  0.18030000000000002         -8.9039088087370167E-036
  0.18140000000000001         -6.8853625945336724E-036
  0.18250000000000000          1.7827854669952290E-036
  0.18360000000000004          1.5704744257874004E-035
  0.18470000000000003          2.8591520880659342E-035
  0.18580000000000002          3.0260382016633413E-035
  0.18690000000000001          1.1184583553580050E-035
  0.18800000000000000         -3.0145837850461105E-035
  0.18910000000000005         -8.0333443503245109E-035
  0.19020000000000004         -1.0991596713777735E-034
  0.19130000000000003         -8.2828925985709042E-035
  0.19240000000000002          2.2727661791422937E-035
  0.19350000000000001          1.8874295940855481E-034
  0.19460000000000005          3.4186885641038823E-034
  0.19570000000000004          3.6577794496829505E-034
  0.19680000000000003          1.5212442057303839E-034
  0.19790000000000002         -3.1867032131231035E-034
  0.19900000000000001         -9.0225508576266833E-034
  0.20010000000000000         -1.2764734375281984E-033
  0.20120000000000005         -1.0399437548371298E-033
  0.20230000000000004          6.8311791676965757E-035
  0.20340000000000003          1.8963472557262015E-033
  0.20450000000000002          3.7031650415314040E-033
  0.20560000000000000          4.2616870049745701E-033
  0.20670000000000005          2.3557558244953081E-033
  0.20780000000000004         -2.4025354494672564E-033
  0.20890000000000003         -8.7697022940219505E-033
  0.21000000000000002         -1.3622077345971694E-032
  0.21110000000000001         -1.2781382264815532E-032
  0.21220000000000000         -3.0606792038866340E-033
  0.21330000000000005          1.5026691642531644E-032
  0.21440000000000003          3.5231602748450548E-032
  0.21550000000000002          4.5941191270167751E-032
  0.21660000000000001          3.4220793208492052E-032
  0.21770000000000000         -6.7778726810747884E-033
  0.21880000000000005         -6.9669706217499340E-032
  0.21990000000000004         -1.2864264581957173E-031
  0.22100000000000003         -1.4426263778029947E-031
  0.22210000000000002         -7.9728587350465613E-032
  0.22320000000000001          7.4632987296632973E-032
  0.22430000000000000          2.7886225719427959E-031
  0.22540000000000004          4.3791431633898646E-031
  0.22650000000000003          4.2674255558612694E-031
  0.22760000000000002          1.4864790660196145E-031
  0.22870000000000001         -3.8902668177490090E-031
  0.22980000000000000         -1.0175503370687043E-030
  0.23090000000000005         -1.4130977656435798E-030
  0.23200000000000004         -1.1998298410537579E-030
  0.23310000000000003         -1.4399605425025689E-031
  0.23420000000000002          1.6242645922940994E-030
  0.23530000000000001          3.4771837077751518E-030
  0.23640000000000000          4.3728469622193584E-030
  0.23750000000000004          3.2297976898637692E-030
  0.23860000000000003         -4.6276133654424789E-031
  0.23970000000000002         -6.0233384858174629E-030
  0.24080000000000001         -1.1300200129341059E-029
  0.24190000000000000         -1.3088776334440876E-029
  0.24300000000000005         -8.3874747150252567E-030
  0.24410000000000004          3.7692302784994790E-030
  0.24520000000000003          2.0633927753707016E-029
  0.24630000000000002          3.5265874559824456E-029
  0.24740000000000001          3.8165751903129385E-029
  0.24850000000000005          2.1237774108979990E-029
  0.24960000000000004         -1.6907286912658153E-029
  0.25070000000000003         -6.6567338581430745E-029
  0.25180000000000002         -1.0641378473309224E-028
  0.25290000000000001         -1.0912452170722010E-028
  0.25400000000000000         -5.3289637704866049E-029
  0.25510000000000005          6.1711652245403695E-029
  0.25620000000000004          2.0448907850777612E-028
  0.25730000000000003          3.1208074248025103E-028
  0.25840000000000002          3.0777024497632592E-028
  0.25950000000000001          1.3545751742406340E-028
  0.26060000000000005         -1.9959192265192052E-028
  0.26170000000000004         -6.0230149767938696E-028
  0.26280000000000003         -8.9300579877262371E-028
  0.26390000000000002         -8.6029692390042286E-028
  0.26500000000000001         -3.5701204378328134E-028
  0.26610000000000000          5.9013047017541226E-028
  0.26720000000000005          1.7082640444148044E-027
  0.26830000000000004          2.4995513351803816E-027
  0.26940000000000003          2.3900183522181588E-027
  0.27050000000000002          9.9016936354804089E-028
  0.27160000000000001         -1.6140285514683504E-027
  0.27270000000000005         -4.6754669105230485E-027
  0.27380000000000004         -6.8509633318442510E-027
  0.27490000000000003         -6.6021512688600957E-027
  0.27600000000000002         -2.8854413051421966E-027
  0.27710000000000001          4.0845532939196305E-027
  0.27820000000000000          1.2350539069847756E-026
  0.27930000000000005          1.8380461253107451E-026
  0.28040000000000004          1.8103600979919460E-026
  0.28150000000000003          8.6934033678300177E-027
  0.28260000000000002         -9.4524097712202686E-027
  0.28370000000000001         -3.1429295436577010E-026
  0.28480000000000005         -4.8190204732437118E-026
  0.28590000000000004         -4.9114835403059050E-026
  0.28700000000000003         -2.6503474033406247E-026
  0.28810000000000002          1.9352212933652060E-026
  0.28920000000000001          7.6741059836810700E-026
  0.29030000000000000          1.2313313404693279E-025
  0.29140000000000005          1.3127486966286919E-025
  0.29250000000000004          8.0220077273119412E-026
  0.29360000000000003         -3.1876436420928457E-026
  0.29470000000000002         -1.7857330916978143E-025
  0.29580000000000001         -3.0548559125342689E-025
  0.29690000000000005         -3.4403509516570425E-025
  0.29800000000000004         -2.3775283598938853E-025
  0.29910000000000003          2.6009230896591550E-026
  0.30020000000000002          3.9160535531464056E-025
  0.30130000000000001          7.3232792800308059E-025
  0.30240000000000000          8.7959730945772530E-025
  0.30350000000000005          6.8366155382430184E-025
  0.30460000000000004          9.0558936853815632E-026
  0.30570000000000003         -7.9357414040856308E-025
  0.30680000000000002         -1.6855425235856802E-024
  0.30790000000000001         -2.1822912387668189E-024
  0.30900000000000005         -1.8957999176930327E-024
  0.31010000000000004         -6.3519866128794508E-025
  0.31120000000000003          1.4278018452223744E-024
  0.31230000000000002          3.6915048378559740E-024
  0.31340000000000001          5.2236023714301777E-024
  0.31450000000000006          5.0477057795048792E-024
  0.31560000000000005          2.5613977261724879E-024
  0.31670000000000004         -2.0498704465577051E-024
  0.31780000000000003         -7.5885326986788271E-024
  0.31890000000000002         -1.1981957733771647E-023
  0.32000000000000001         -1.2857395720792616E-023
  0.32110000000000005         -8.4671982625274254E-024
  0.32220000000000004          1.3097813583380926E-024
  0.32330000000000003          1.4299647185830279E-023
  0.32440000000000002          2.6112430702694356E-023
  0.32550000000000001          3.1210327547133309E-023
  0.32660000000000006          2.4866516195778411E-023
  0.32770000000000005          5.4956373628423524E-024
  0.32880000000000004         -2.3509971513326303E-023
  0.32990000000000003         -5.3402780300680940E-023
  0.33100000000000002         -7.1846213600781589E-023
  0.33210000000000001         -6.6839488862918039E-023
  0.33320000000000005         -3.1905467618011718E-023
  0.33430000000000004          2.9202412338647626E-023
  0.33540000000000003          1.0042330682906558E-022
  0.33650000000000002          1.5573238657162474E-022
  0.33760000000000001          1.6646204387104448E-022
  0.33870000000000006          1.1227390653753849E-022
  0.33980000000000005         -7.5160700685731625E-024
  0.34090000000000004         -1.6682261705434347E-022
  0.34200000000000003         -3.1425328598091508E-022
  0.34310000000000002         -3.8545259324457978E-022
  0.34420000000000001         -3.2494105061588088E-022
  0.34530000000000005         -1.1171851355547656E-022
  0.34640000000000004          2.2052985892611682E-022
  0.34750000000000003          5.7861433261508642E-022
  0.34860000000000002          8.2744158057065144E-022
  0.34970000000000001          8.3031518346590717E-022
  0.35080000000000006          5.0316816226828214E-022
  0.35190000000000005         -1.3446495018318534E-022
  0.35300000000000004         -9.3315629579869841E-022
  0.35410000000000003         -1.6304057032445022E-021
  0.35520000000000002         -1.9177284287109523E-021
  0.35630000000000001         -1.5474939940587479E-021
  0.35740000000000005         -4.4995960882111918E-022
  0.35850000000000004          1.1823590197103196E-021
  0.35960000000000003          2.8863747037181674E-021
  0.36070000000000002          4.0232140053633165E-021
  0.36180000000000001          3.9711805659863922E-021
  0.36290000000000006          2.3721732752747113E-021
  0.36400000000000005         -6.4762530540894651E-022
  0.36510000000000004         -4.3760718058657016E-021
  0.36620000000000003         -7.6078704091789895E-021
  0.36730000000000002         -8.9550427590866658E-021
  0.36840000000000006         -7.3214985367290700E-021
  0.36950000000000005         -2.4093191427634799E-021
  0.37060000000000004          4.9269111929422501E-021
  0.37170000000000003          1.2657500008364274E-020
  0.37280000000000002          1.7993091588411709E-020
  0.37390000000000001          1.8209491807176229E-020
  0.37500000000000006          1.1690292665979470E-020
  0.37610000000000005         -1.1414645748838824E-021
  0.37720000000000004         -1.7383824975951885E-020
  0.37830000000000003         -3.2014341064208654E-020
  0.37940000000000002         -3.9140864900386142E-020
  0.38050000000000006         -3.3933765666500589E-020
  0.38160000000000005         -1.4716385756512860E-020
  0.38270000000000004          1.5514343490337079E-020
  0.38380000000000003          4.8857642010592085E-020
  0.38490000000000002          7.4014337484078653E-020
  0.38600000000000001          7.9459154713860314E-020
  0.38710000000000000          5.7581632427533625E-020
  0.38819999999999999          8.5528361231135154E-021
  0.38930000000000009         -5.7564288319158548E-020
  0.39040000000000008         -1.2170724038031227E-019
  0.39150000000000007         -1.6020443447186591E-019
  0.39260000000000006         -1.5202829077654444E-019
  0.39370000000000005         -8.7073431326836099E-020
  0.39480000000000004          2.7236307884404338E-020
  0.39590000000000003          1.6382528407387637E-019
  0.39700000000000002          2.8028064618436030E-019
  0.39810000000000001          3.2977488178590862E-019
  0.39920000000000000          2.7646131190790726E-019
  0.40029999999999999          1.1106525023848265E-019
  0.40140000000000009         -1.3878202262525945E-019
  0.40250000000000008         -4.0846989906626425E-019
  0.40360000000000007         -6.0926982590922186E-019
  0.40470000000000006         -6.5295082541607502E-019
  0.40580000000000005         -4.8256056723918871E-019
  0.40690000000000004         -1.0022952621211676E-019
  0.40800000000000003          4.1839177895500876E-019
  0.40910000000000002          9.3139694183552769E-019
  0.41020000000000001          1.2624783265242428E-018
  0.41130000000000000          1.2524930753130472E-018
  0.41239999999999999          8.1790280880423054E-019
  0.41350000000000009         -2.2043788170443311E-021
  0.41460000000000008         -1.0292858349957813E-018
  0.41570000000000007         -1.9716563260767691E-018
  0.41680000000000006         -2.4952733743452272E-018
  0.41790000000000005         -2.3255473096545284E-018
  0.41900000000000004         -1.3530829649711014E-018
  0.42010000000000003          2.9133752032839118E-019
  0.42120000000000002          2.2248114844179638E-018
  0.42230000000000001          3.8818130150641374E-018
  0.42340000000000000          4.6603006799533677E-018
  0.42449999999999999          4.1127501917952511E-018
  0.42560000000000009          2.1282458436374578E-018
  0.42670000000000008         -9.5724027627802352E-019
  0.42780000000000007         -4.3750904178856163E-018
  0.42890000000000006         -7.0853881951940311E-018
  0.43000000000000005         -8.0635594875639758E-018
  0.43110000000000004         -6.6436944929834134E-018
  0.43220000000000003         -2.8158545365860118E-018
  0.43330000000000002          2.6323885938880419E-018
  0.43440000000000001          8.2117213474841397E-018
  0.43550000000000000          1.2083894320075210E-017
  0.43659999999999999          1.2609261395876547E-017
  0.43770000000000009          8.9474779005441375E-018
  0.43880000000000008          1.5202639682294577E-018
  0.43990000000000007         -7.8514632631871335E-018
  0.44100000000000006         -1.6256958997383301E-017
  0.44210000000000005         -2.0450318543831615E-017
  0.44320000000000004         -1.7899771197826092E-017
  0.44430000000000003         -7.8474341485253437E-018
  0.44540000000000002          7.9749327246893621E-018
  0.44650000000000001          2.5298505727943301E-017
  0.44760000000000000          3.8119470601016201E-017
  0.44869999999999999          4.0296293677230859E-017
  0.44980000000000009          2.7615389592851961E-017
  0.45090000000000008         -2.3232149498411365E-019
  0.45200000000000007         -3.8427873285797072E-017
  0.45310000000000006         -7.7138256014259199E-017
  0.45420000000000005         -1.0327152674844099E-016
  0.45530000000000004         -1.0373721766022207E-016
  0.45640000000000003         -6.9579624930232064E-017
  0.45750000000000002          6.2211557892254769E-020
  0.45860000000000001          9.5402779385394844E-017
  0.45970000000000000          1.9596156391333463E-016
  0.46079999999999999          2.7362077958999379E-016
  0.46190000000000009          2.9862408486028146E-016
  0.46300000000000008          2.4747930105667071E-016
  0.46410000000000007          1.1098605897679117E-016
  0.46520000000000006         -9.9767981399439257E-017
  0.46630000000000005         -3.5144314651958510E-016
  0.46740000000000004         -5.9178854423021234E-016
  0.46850000000000003         -7.5837907510594528E-016
  0.46960000000000002         -7.9146801988315410E-016
  0.47070000000000001         -6.4846509667137711E-016
  0.47180000000000000         -3.1684709695678855E-016
  0.47289999999999999          1.7764594551732806E-016
  0.47400000000000009          7.6983875142614981E-016
  0.47510000000000008          1.3618203717826036E-015
  0.47620000000000007          1.8366480240911675E-015
  0.47730000000000006          2.0766830829484078E-015
  0.47840000000000005          1.9833089047952437E-015