 -0.12000000000000000          0.0000000000000000     
 -0.11889999999999999          0.0000000000000000     
 -0.11780000000000000          0.0000000000000000     
 -0.11670000000000000          0.0000000000000000     
 -0.11559999999999999          0.0000000000000000     
 -0.11449999999999999          0.0000000000000000     
 -0.11340000000000000          0.0000000000000000     
 -0.11230000000000000          0.0000000000000000     
 -0.11119999999999999          0.0000000000000000     
 -0.11009999999999999          0.0000000000000000     
 -0.10900000000000000          0.0000000000000000     
 -0.10790000000000000          0.0000000000000000     
 -0.10679999999999999          0.0000000000000000     
 -0.10569999999999999          0.0000000000000000     
 -0.10460000000000000          0.0000000000000000     
 -0.10349999999999999          0.0000000000000000     
 -0.10239999999999999          0.0000000000000000     
 -0.10130000000000000          0.0000000000000000     
 -0.10020000000000000          0.0000000000000000     
  -9.9099999999999994E-002     0.0000000000000000     
  -9.7999999999999990E-002     0.0000000000000000     
  -9.6899999999999986E-002     0.0000000000000000     
  -9.5799999999999996E-002     0.0000000000000000     
  -9.4699999999999993E-002     0.0000000000000000     
  -9.3599999999999989E-002     0.0000000000000000     
  -9.2499999999999999E-002     0.0000000000000000     
  -9.1399999999999995E-002     0.0000000000000000     
  -9.0299999999999991E-002     0.0000000000000000     
  -8.9200000000000002E-002     0.0000000000000000     
  -8.8099999999999984E-002     0.0000000000000000     
  -8.6999999999999994E-002     0.0000000000000000     
  -8.5899999999999990E-002     0.0000000000000000     
  -8.4799999999999986E-002     0.0000000000000000     
  -8.3699999999999997E-002     0.0000000000000000     
  -8.2599999999999993E-002     0.0000000000000000     
  -8.1499999999999989E-002     0.0000000000000000     
  -8.0399999999999999E-002     0.0000000000000000     
  -7.9299999999999995E-002     0.0000000000000000     
  -7.8199999999999992E-002     0.0000000000000000     
  -7.7100000000000002E-002     0.0000000000000000     
  -7.5999999999999984E-002     0.0000000000000000     
  -7.4899999999999994E-002     0.0000000000000000     
  -7.3799999999999991E-002     0.0000000000000000     
  -7.2699999999999987E-002     0.0000000000000000     
  -7.1599999999999997E-002     0.0000000000000000     
  -7.0499999999999993E-002     0.0000000000000000     
  -6.9399999999999989E-002     0.0000000000000000     
  -6.8300000000000000E-002     0.0000000000000000     
  -6.7199999999999996E-002     0.0000000000000000     
  -6.6099999999999992E-002     0.0000000000000000     
  -6.5000000000000002E-002     0.0000000000000000     
  -6.3899999999999985E-002     0.0000000000000000     
  -6.2799999999999995E-002     0.0000000000000000     
  -6.1699999999999991E-002     0.0000000000000000     
  -6.0599999999999994E-002     0.0000000000000000     
  -5.9499999999999990E-002     0.0000000000000000     
  -5.8399999999999994E-002     0.0000000000000000     
  -5.7299999999999990E-002     0.0000000000000000     
  -5.6199999999999986E-002     0.0000000000000000     
  -5.5099999999999996E-002     1.8448536398720054E-054
  -5.3999999999999992E-002     6.2912537518905281E-054
  -5.2899999999999989E-002     1.0737653863909051E-053
  -5.1799999999999985E-002     4.4464001120185226E-054
  -5.0699999999999995E-002     2.8025968890332655E-045
  -4.9599999999999991E-002     7.0064921938581875E-045
  -4.8499999999999988E-002     1.4012984431305934E-044
  -4.7399999999999998E-002     2.3822073767884330E-044
  -4.6299999999999994E-002     1.5414283497399646E-044
  -4.5199999999999990E-002    -5.7453235615358708E-044
  -4.4099999999999986E-002    -2.5083242263921718E-043
  -4.2999999999999997E-002    -5.6332198090089816E-043
  -4.1899999999999993E-002    -7.5810247283955648E-043
  -4.0799999999999989E-002    -1.5974804021060404E-043
  -3.9699999999999985E-002     2.3107411400362385E-042
  -3.8599999999999995E-002     7.2671338148325211E-042
  -3.7499999999999992E-002     1.2684553734873464E-041
  -3.6399999999999988E-002     1.1008600896459817E-041
  -3.5299999999999984E-002    -1.1342109473703867E-041
  -3.4199999999999994E-002    -6.6037591185464623E-041
  -3.3099999999999991E-002    -1.4088374532225202E-040
  -3.1999999999999987E-002    -1.6854818085645233E-040
  -3.0899999999999997E-002    -1.4241399280204553E-041
  -2.9799999999999993E-002     4.6234441259081837E-040
  -2.8699999999999989E-002     1.2186251987092331E-039
  -2.7599999999999986E-002     1.7470030130138320E-039
  -2.6499999999999996E-002     9.2411152313955829E-040
  -2.5399999999999992E-002    -2.5658391171138420E-039
  -2.4299999999999988E-002    -8.8091030576634708E-039
  -2.3199999999999985E-002    -1.4448106137445499E-038
  -2.2099999999999995E-002    -1.1288871865813969E-038
  -2.0999999999999991E-002     1.1090856694488637E-038
  -1.9899999999999987E-002     5.5659457286687354E-038
  -1.8799999999999983E-002     1.0238345154453955E-037
  -1.7699999999999994E-002     9.7415019903381724E-038
  -1.6599999999999990E-002    -3.2130664611876657E-038
  -1.5499999999999986E-002    -3.1758732372811194E-037
  -1.4399999999999996E-002    -6.4898777865718079E-037
  -1.3299999999999992E-002    -7.0072919575714597E-037
  -1.2199999999999989E-002    -9.3782506170501164E-039
  -1.1099999999999985E-002     1.6733385128545629E-036
  -9.9999999999999950E-003     3.7864758186777351E-036
  -8.8999999999999913E-003     4.4924802551259097E-036
  -7.7999999999999875E-003     1.0572351786481425E-036
  -6.6999999999999837E-003    -8.2200172519222642E-036
  -5.5999999999999939E-003    -2.0685388832062560E-035
  -4.4999999999999901E-003    -2.6584138004657242E-035
  -3.3999999999999864E-003    -1.0754676217989350E-035
  -2.2999999999999826E-003     3.7434423456010944E-035
  -1.1999999999999927E-003     1.0653007111526888E-034
  -9.9999999999988987E-005     1.4771448152270728E-034
   1.0000000000000148E-003     8.1431594002669684E-035
   2.1000000000000185E-003    -1.5441951192201441E-034
   3.2000000000000084E-003    -5.1647038626653806E-034
   4.3000000000000121E-003    -7.7484850646304980E-034
   5.4000000000000159E-003    -5.3380348146344755E-034
   6.5000000000000058E-003     5.4859988597884808E-034
   7.6000000000000234E-003     2.3415377182424817E-033
   8.7000000000000133E-003     3.8312252151944435E-033
   9.8000000000000032E-003     3.1533984900139412E-033
   1.0900000000000021E-002    -1.4687777831180153E-033
   1.2000000000000011E-002    -9.8329873968184791E-033
   1.3100000000000001E-002    -1.7778577781981901E-032
   1.4200000000000018E-002    -1.7009698930656927E-032
   1.5300000000000008E-002     1.1733324661536579E-033
   1.6400000000000026E-002     3.7782885906519094E-032
   1.7500000000000016E-002     7.7063764091934909E-032
   1.8600000000000005E-002     8.4239946613963444E-032
   1.9700000000000023E-002     1.9252472162614212E-032
   2.0800000000000013E-002    -1.3051472393077068E-031
   2.1900000000000003E-002    -3.1070929955543861E-031
   2.3000000000000020E-002    -3.8436413435251641E-031
   2.4100000000000010E-002    -1.7819921650932325E-031
   2.5200000000000000E-002     3.9241728960554461E-031
   2.6300000000000018E-002     1.1604712455989027E-030
   2.7400000000000008E-002     1.6204471857966878E-030
   2.8500000000000025E-002     1.0683954705574340E-030
   2.9600000000000015E-002    -9.4839039271079580E-031
   3.0700000000000005E-002    -3.9950170109196941E-030
   3.1800000000000023E-002    -6.3284959811601235E-030
   3.2900000000000013E-002    -5.2620484743081160E-030
   3.4000000000000002E-002     1.3132729179905460E-030
   3.5100000000000020E-002     1.2576930990776727E-029
   3.6200000000000010E-002     2.2939763605644483E-029
   3.7300000000000028E-002     2.2761829062440717E-029
   3.8400000000000017E-002     3.1782785758451987E-030
   3.9500000000000007E-002    -3.5673533201171260E-029
   4.0600000000000025E-002    -7.7251884528164226E-029
   4.1700000000000015E-002    -8.9030108762737334E-029
   4.2800000000000005E-002    -3.6763064644224683E-029
   4.3900000000000022E-002     8.8262971252446356E-029
   4.5000000000000012E-002     2.4150932623657371E-028
   4.6100000000000002E-002     3.1979245937899208E-028
   4.7200000000000020E-002     2.0020848844220606E-028
   4.8300000000000010E-002    -1.7444364731289226E-028
   4.9400000000000027E-002    -6.9836048619933314E-028
   5.0500000000000017E-002    -1.0642764951836036E-027
   5.1600000000000007E-002    -8.5959185291168783E-028
   5.2700000000000025E-002     1.8048262206932805E-028
   5.3800000000000014E-002     1.8512656545281713E-027
   5.4900000000000004E-002     3.2970699505442305E-027
   5.6000000000000022E-002     3.2169058552369774E-027
   5.7100000000000012E-002     5.7177902142187360E-028
   5.8200000000000002E-002    -4.4107534862261526E-027
   5.9300000000000019E-002    -9.5191313251368088E-027
   6.0400000000000009E-002    -1.0892867993716303E-026
   6.1500000000000027E-002    -4.8765669121195061E-027
   6.2600000000000017E-002     9.0115761231474023E-027
   6.3700000000000007E-002     2.5545833429583218E-026
   6.4800000000000024E-002     3.3947291708632997E-026
   6.5900000000000014E-002     2.2402241928849711E-026
   6.7000000000000004E-002    -1.3636333494287701E-026
   6.8100000000000022E-002    -6.3229856915278447E-026
   6.9200000000000012E-002    -9.8128459984393016E-026
   7.0300000000000029E-002    -8.2837791506969895E-026
   7.1400000000000019E-002     3.4395403962780012E-027
   7.2500000000000009E-002     1.4198834123463273E-025
   7.3600000000000027E-002     2.6368649348287916E-025
   7.4700000000000016E-002     2.6880344260990879E-025
   7.5800000000000006E-002     8.1645555580588708E-026
   7.6900000000000024E-002    -2.7919300329071109E-025
   7.8000000000000014E-002    -6.5739407397281327E-025
   7.9100000000000004E-002    -7.9027745331031082E-025
   8.0200000000000021E-002    -4.3634678421882090E-025
   8.1300000000000011E-002     4.3754582412635346E-025
   8.2400000000000029E-002     1.5108123847668671E-024
   8.3500000000000019E-002     2.1349914889363569E-024
   8.4600000000000009E-002     1.6101363201518472E-024
   8.5700000000000026E-002    -3.4516730364233279E-025
   8.6800000000000016E-002    -3.1584684562216241E-024
   8.7900000000000006E-002    -5.3332909400858175E-024
   8.9000000000000024E-002    -4.9956230275493797E-024
   9.0100000000000013E-002    -1.0062558748933915E-024
   9.1200000000000003E-002     5.8416071690493220E-024
   9.2300000000000021E-002     1.2338596979262246E-023
   9.3400000000000011E-002     1.3809680682413537E-023
   9.4500000000000028E-002     6.5896199722746932E-024
   9.5600000000000018E-002    -8.9089119781504187E-024
   9.6700000000000008E-002    -2.6365204741417884E-023
   9.7800000000000026E-002    -3.4866560124626516E-023
   9.8900000000000016E-002    -2.4062875315428695E-023
  0.10000000000000001          8.4603519195106998E-024
  0.10110000000000002          5.1556754681472990E-023
  0.10220000000000001          8.1373090811309578E-023
  0.10330000000000003          7.1289833617517160E-023
  0.10440000000000002          8.5990102889950171E-024
  0.10550000000000001         -9.0174044571513911E-023
  0.10660000000000003         -1.7636087271139473E-022
  0.10770000000000002         -1.8653365834788614E-022
  0.10880000000000001         -7.8026776951875373E-023
  0.10990000000000003          1.3283233341773617E-022
  0.11100000000000002          3.5420174853490977E-022
  0.11210000000000001          4.4497434709337840E-022
  0.11320000000000002          2.8579065214767379E-022
  0.11430000000000001         -1.3222696430853562E-022
  0.11540000000000003         -6.5201607166853615E-022
  0.11650000000000002         -9.7994477081445275E-022
  0.11760000000000001         -8.1802614329718125E-022
  0.11870000000000003         -5.6826018476973673E-023
  0.11980000000000002          1.0714165744519913E-021
  0.12090000000000001          1.9969325265609490E-021
  0.12200000000000003          2.0381247625015929E-021
  0.12310000000000001          7.9520695174355430E-022
  0.12420000000000003         -1.4739800761546768E-021
  0.12530000000000002         -3.7472101274466088E-021
  0.12640000000000001         -4.5799055696066674E-021
  0.12750000000000003         -2.8580429343328473E-021
  0.12860000000000002          1.3570397090961656E-021
  0.12970000000000001          6.3979810368096228E-021
  0.13080000000000003          9.4152992577910490E-021
  0.13190000000000002          7.7208101542568696E-021
  0.13300000000000001          5.5161068271686634E-022
  0.13410000000000000         -9.7062219584509791E-021
  0.13520000000000004         -1.7818820883003937E-020
  0.13630000000000003         -1.7918694985708567E-020
  0.13740000000000002         -6.9507503779750770E-021
  0.13850000000000001          1.2366643080802898E-020
  0.13960000000000000          3.1111810249399352E-020
  0.14070000000000005          3.7460945074426722E-020
  0.14180000000000004          2.3005676619064117E-020
  0.14290000000000003         -1.0783702723777095E-020
  0.14400000000000002         -4.9941225938182804E-020
  0.14510000000000001         -7.2235937612712927E-020
  0.14620000000000000         -5.8027980214003186E-020
  0.14730000000000004         -3.3138553088656848E-021
  0.14840000000000003          7.2380228202250593E-020
  0.14950000000000002          1.2992315103925227E-019
  0.15060000000000001          1.2793233489075424E-019
  0.15170000000000000          4.7395533949834071E-020
  0.15280000000000005         -8.9162701003937333E-020
  0.15390000000000004         -2.1757049680990472E-019
  0.15500000000000003         -2.5732306617271839E-019
  0.15610000000000002         -1.5516356125942775E-019
  0.15720000000000001          7.3747633501301471E-020
  0.15830000000000000          3.3293714241186704E-019
  0.15940000000000004          4.7685809150073082E-019
  0.16050000000000003          3.8297611946319615E-019
  0.16160000000000002          3.2545868041533789E-020
  0.16270000000000001         -4.4601133346500194E-019
  0.16380000000000000         -8.0874843750381664E-019
  0.16490000000000005         -8.0661188614385579E-019
  0.16600000000000004         -3.3204855270925055E-019
  0.16710000000000003          4.7527113740018827E-019
  0.16820000000000002          1.2388885540020933E-018
  0.16930000000000001          1.4997884592934164E-018
  0.17040000000000000          9.6396123882686253E-019
  0.17150000000000004         -2.7746507986483879E-019
  0.17260000000000003         -1.6942403044712188E-018
  0.17370000000000002         -2.5078548502330765E-018
  0.17480000000000001         -2.0820245619708575E-018
  0.17590000000000000         -3.3616681641134418E-019
  0.17700000000000005          2.0570306435858851E-018
  0.17810000000000004          3.8657818225714715E-018
  0.17920000000000003          3.8759789124370707E-018
  0.18030000000000002          1.6118936892045391E-018
  0.18140000000000001         -2.1871916334617225E-018
  0.18250000000000000         -5.6812893845179646E-018
  0.18360000000000004         -6.7240378352013245E-018
  0.18470000000000003         -4.0476586152413970E-018
  0.18580000000000002          1.7574268338071185E-018
  0.18690000000000001          8.0988615911221910E-018
  0.18800000000000000          1.1376865048020134E-017
  0.18910000000000005          8.8289370632015895E-018
  0.19020000000000004          3.6462453367271296E-019
  0.19130000000000003         -1.0682887765347601E-017
  0.19240000000000002         -1.8600967469026758E-017
  0.19350000000000001         -1.7984218366151629E-017
  0.19460000000000005         -6.9199734482750707E-018
  0.19570000000000004          1.1039599436038761E-017
  0.19680000000000003          2.7546126668490963E-017
  0.19790000000000002          3.3014961889786692E-017
  0.19900000000000001          2.1728936258730765E-017
  0.20010000000000000         -4.0568834907648623E-018
  0.20120000000000005         -3.3563931663809423E-017
  0.20230000000000004         -5.1599245130792716E-017
  0.20340000000000003         -4.6029285780377839E-017
  0.20450000000000002         -1.5131119006213219E-017
  0.20560000000000000          2.9344539344439604E-017
  0.20670000000000005          6.6013862915154365E-017
  0.20780000000000004          7.3850380499977441E-017
  0.20890000000000003          4.3926791547585479E-017
  0.21000000000000002         -1.3382969092367314E-017
  0.21110000000000001         -7.0723028042210518E-017
  0.21220000000000000         -9.6151136115807610E-017
  0.21330000000000005         -7.0515221547245139E-017
  0.21440000000000003         -8.3137208933389402E-019
  0.21550000000000002          7.8840825811381789E-017
  0.21660000000000001          1.2206689568091978E-016
  0.21770000000000000          9.4950605686920795E-017
  0.21880000000000005         -1.0313819535785790E-018
  0.21990000000000004         -1.2199746560296997E-016
  0.22100000000000003         -1.9796108691809302E-016
  0.22210000000000002         -1.6816941639896330E-016
  0.22320000000000001         -1.9319047129586865E-017
  0.22430000000000000          1.9467436261719645E-016
  0.22540000000000004          3.6681079261758602E-016
  0.22650000000000003          3.8466322941650334E-016
  0.22760000000000002          1.9225023320630915E-016
  0.22870000000000001         -1.6520199731731701E-016
  0.22980000000000000         -5.4195952534438287E-016
  0.23090000000000005         -7.4705023699290112E-016
  0.23200000000000004         -6.3522309592488600E-016
  0.23310000000000003         -1.9176239926693574E-016
  0.23420000000000002          4.3507452619138055E-016
  0.23530000000000001          9.8035868520761089E-016
  0.23640000000000000          1.1763667726214329E-015
  0.23750000000000004          8.8514901575752072E-016
  0.23860000000000003          1.8344841000974832E-016
  0.23970000000000002         -6.5080885992303659E-016
  0.24080000000000001         -1.2560078732636693E-015
  0.24190000000000000         -1.3591249354579897E-015
  0.24300000000000005         -9.1784534680024110E-016
  0.24410000000000004         -1.5326962220442828E-016
  0.24520000000000003          5.5597651724334405E-016
  0.24630000000000002          8.7425080181792760E-016
  0.24740000000000001          7.0125112074641763E-016
  0.24850000000000005          2.4425021448382793E-016
  0.24960000000000004         -8.8448382112700155E-017
  0.25070000000000003          6.4010947010955709E-017
  0.25180000000000002          7.5162149988274579E-016
  0.25290000000000001          1.5944171372482006E-015
  0.25400000000000000          1.9125389617700630E-015
  0.25510000000000005          1.0844916986548719E-015
  0.25620000000000004         -1.0262283445289294E-015
  0.25730000000000003         -3.8115818445518670E-015
  0.25840000000000002         -6.0196002127237342E-015
  0.25950000000000001         -6.2488928513613664E-015
  0.26060000000000005         -3.6602182491868497E-015
  0.26170000000000004          1.4277325261933820E-015
  0.26280000000000003          7.3982238723151252E-015
  0.26390000000000002          1.1819493646632667E-014
  0.26500000000000001          1.2427576928502855E-014
  0.26610000000000000          8.2098669890402521E-015
  0.26720000000000005          7.5964967368230349E-017
  0.26830000000000004         -9.2677847583882444E-015
  0.26940000000000003         -1.6282953281343856E-014
  0.27050000000000002         -1.8041636080320849E-014
  0.27160000000000001         -1.3517205453204631E-014
  0.27270000000000005         -4.1122992031133109E-015
  0.27380000000000004          6.8619851710093012E-015
  0.27490000000000003          1.5549300621778869E-014
  0.27600000000000002          1.9128177802895526E-014
  0.27710000000000001          1.6861746657011023E-014
  0.27820000000000000          1.0130412431877754E-014
  0.27930000000000005          1.4906558929431300E-015
  0.28040000000000004         -6.6707828819663937E-015
  0.28150000000000003         -1.3091244011516102E-014
  0.28260000000000002         -1.7628787423197067E-014
  0.28370000000000001         -2.0332879681755344E-014
  0.28480000000000005         -2.0270618018469456E-014
  0.28590000000000004         -1.5098487457656201E-014
  0.28700000000000003         -2.0814755286127933E-015
  0.28810000000000002          1.9568147991145943E-014
  0.28920000000000001          4.6142713300613898E-014
  0.29030000000000000          6.8367581496613666E-014
  0.29140000000000005          7.3215307701083262E-014
  0.29250000000000004          4.8825248478142828E-014
  0.29360000000000003         -8.9171274942250517E-015
  0.29470000000000002         -9.0943926866821228E-014
  0.29580000000000001         -1.7377816015638628E-013
  0.29690000000000005         -2.2438431485297658E-013
  0.29800000000000004         -2.1060661432969679E-013
  0.29910000000000003         -1.1411309672013446E-013
  0.30020000000000002          5.8890990287422266E-014
  0.30130000000000001          2.7376066457380805E-013
  0.30240000000000000          4.7281064468483107E-013
  0.30350000000000005          5.8924550451136800E-013
  0.30460000000000004          5.6574840763372966E-013
  0.30570000000000003          3.7221615454922988E-013
  0.30680000000000002          1.7584254126194205E-014
  0.30790000000000001         -4.4711119770462064E-013
  0.30900000000000005         -9.3450138517912093E-013
  0.31010000000000004         -1.3335376626607041E-012
  0.31120000000000003         -1.5266418814053279E-012
  0.31230000000000002         -1.4098535800516850E-012
  0.31340000000000001         -9.1550271237558569E-013
  0.31450000000000006         -3.6670461609592721E-014
  0.31560000000000005          1.1496328953115844E-012
  0.31670000000000004          2.4673839300606851E-012
  0.31780000000000003          3.6444636375086281E-012
  0.31890000000000002          4.3433277875014639E-012
  0.32000000000000001          4.2239233060416932E-012
  0.32110000000000005          3.0332683117594454E-012
  0.32220000000000004          7.0393475318919740E-013
  0.32330000000000003         -2.5659526495705167E-012
  0.32440000000000002         -6.2810976000842603E-012
  0.32550000000000001         -9.6884193391702748E-012
  0.32660000000000006         -1.1893817533010817E-011
  0.32770000000000005         -1.2041826742096185E-011
  0.32880000000000004         -9.5244975113181829E-012
  0.32990000000000003         -4.1744385672251841E-012
  0.33100000000000002          3.6034250791772440E-012
  0.33210000000000001          1.2796480036938940E-011
  0.33320000000000005          2.1863309785134427E-011
  0.33430000000000004          2.8925429756905495E-011
  0.33540000000000003          3.2053200344281709E-011
  0.33650000000000002          2.9613537258065806E-011
  0.33760000000000001          2.0635958130842391E-011
  0.33870000000000006          5.1438114838872407E-012
  0.33980000000000005         -1.5610617069720245E-011
  0.34090000000000004         -3.9071825703745110E-011
  0.34200000000000003         -6.1525132207149316E-011
  0.34310000000000002         -7.8493170190783767E-011
  0.34420000000000001         -8.5377621415612979E-011
  0.34530000000000005         -7.8284038640672030E-011
  0.34640000000000004         -5.4911543657212005E-011
  0.34750000000000003         -1.5346544805617083E-011
  0.34860000000000002          3.7413426848378030E-011
  0.34970000000000001          9.7356046975897288E-011
  0.35080000000000006          1.5586150412349629E-010
  0.35190000000000005          2.0262860786446480E-010
  0.35300000000000004          2.2703756847892007E-010
  0.35410000000000003          2.1978997676773412E-010
  0.35520000000000002          1.7461250372520954E-010
  0.35630000000000001          8.9787113983121156E-011
  0.35740000000000005         -3.0724524609781927E-011
  0.35850000000000004         -1.7676640752646861E-010
  0.35960000000000003         -3.3223754272467109E-010
  0.36070000000000002         -4.7619047470165584E-010
  0.36180000000000001         -5.8477672482873258E-010
  0.36290000000000006         -6.3393151531172987E-010
  0.36400000000000005         -6.0257948264510591E-010
  0.36510000000000004         -4.7603914873710725E-010
  0.36620000000000003         -2.4922974457827378E-010
  0.36730000000000002          7.0747236757362454E-011
  0.36840000000000006          4.6305659366144566E-010
  0.36950000000000005          8.9294244056808752E-010
  0.37060000000000004          1.3131337086709325E-009
  0.37170000000000003          1.6669452416819947E-009
  0.37280000000000002          1.8930408260583405E-009
  0.37390000000000001          1.9316805824641080E-009
  0.37500000000000006          1.7321157727208466E-009
  0.37610000000000005          1.2606079406707407E-009
  0.37720000000000004          5.0835473879273840E-010
  0.37830000000000003         -5.0157728416388443E-010
  0.37940000000000002         -1.7093305649486485E-009
  0.38050000000000006         -3.0163622633122949E-009
  0.38160000000000005         -4.2874441622641213E-009
  0.38270000000000004         -5.3571027387638748E-009
  0.38380000000000003         -6.0406044319435875E-009
  0.38490000000000002         -6.1491038590707859E-009
  0.38600000000000001         -5.5080961662328939E-009
  0.38710000000000000         -3.9779472724142494E-009
  0.38819999999999999         -1.4750452833389934E-009
  0.38930000000000009          2.0079813481718208E-009
  0.39040000000000008          6.3845031405128317E-009
  0.39150000000000007          1.1459956506503852E-008
  0.39260000000000006          1.6922823968583805E-008
  0.39370000000000005          2.2341154608923162E-008
  0.39480000000000004          2.7164554921420448E-008
  0.39590000000000003          3.0730720919930147E-008
  0.39700000000000002          3.2274435385667195E-008
  0.39810000000000001          3.0936010891256911E-008
  0.39920000000000000          2.5765167587699546E-008
  0.40029999999999999          1.5715967034658351E-008
  0.40140000000000009         -3.7164123274063039E-010
  0.40250000000000008         -2.3807579904181054E-008
  0.40360000000000007         -5.6107676572484560E-008
  0.40470000000000006         -9.9072010673374913E-008
  0.40580000000000005         -1.5488696127194323E-007
  0.40690000000000004         -2.2625144322247339E-007
  0.40800000000000003         -3.1652854054019366E-007
  0.40910000000000002         -4.2992337301062622E-007
  0.41020000000000001         -5.7168955148569395E-007
  0.41130000000000000         -7.4836634283664228E-007
  0.41239999999999999         -9.6805148994120098E-007
  0.41350000000000009         -1.2407140210156752E-006
  0.41460000000000008         -1.5785536705502365E-006
  0.41570000000000007         -1.9964143014918383E-006
  0.41680000000000006         -2.5122587751625923E-006
  0.41790000000000005         -3.1477179449959560E-006
  0.41900000000000004         -3.9287201405535665E-006
  0.42010000000000003         -4.8862197864640905E-006
  0.42120000000000002         -6.0570259520917700E-006
  0.42230000000000001         -7.4847525461206898E-006
  0.42340000000000000         -9.2208910655493392E-006
  0.42449999999999999         -1.1326018404647529E-005
  0.42560000000000009         -1.3871144726096463E-005
  0.42670000000000008         -1.6939220493700651E-005
  0.42780000000000007         -2.0626779474556751E-005
  0.42890000000000006         -2.5045754090467270E-005
  0.43000000000000005         -3.0325438107494939E-005
  0.43110000000000004         -3.6614604849110141E-005
  0.43220000000000003         -4.4083782751920645E-005
  0.43330000000000002         -5.2927661888637333E-005
  0.43440000000000001         -6.3367624182318819E-005
  0.43550000000000000         -7.5654373665032284E-005
  0.43659999999999999         -9.0070621306195860E-005
  0.43770000000000009         -1.0693378803081458E-004
  0.43880000000000008         -1.2659864953005556E-004
  0.43990000000000007         -1.4945995560597158E-004
  0.44100000000000006         -1.7595475847792056E-004
  0.44210000000000005         -2.0656458101791811E-004
  0.44320000000000004         -2.4181716298045128E-004
  0.44430000000000003         -2.8228782888249730E-004
  0.44540000000000002         -3.2860020104736150E-004
  0.44650000000000001         -3.8142647609105967E-004
  0.44760000000000000         -4.4148642084016702E-004
  0.44869999999999999         -5.0954596079604724E-004
  0.44980000000000009         -5.8641418244032354E-004
  0.45090000000000008         -6.7293952063310803E-004
  0.45200000000000007         -7.7000440350822404E-004
  0.45310000000000006         -8.7851832576159230E-004
  0.45420000000000005         -9.9940935033278355E-004
  0.45530000000000004         -1.1336140966873973E-003
  0.45640000000000003         -1.2820651679623701E-003
  0.45750000000000002         -1.4456774721657432E-003
  0.45860000000000001         -1.6253323896929829E-003
  0.45970000000000000         -1.8218596125368863E-003
  0.46079999999999999         -2.0360173536829815E-003
  0.46190000000000009         -2.2684715087670569E-003
  0.46300000000000008         -2.5197719073496438E-003
  0.46410000000000007         -2.7903287970211690E-003
  0.46520000000000006         -3.0803859514627659E-003
  0.46630000000000005         -3.3899957575675758E-003
  0.46740000000000004         -3.7189915085943290E-003
  0.46850000000000003         -4.0669617927967206E-003
  0.46960000000000002         -4.4332244163915041E-003
  0.47070000000000001         -4.8168012578491464E-003
  0.47180000000000000         -5.2163959161521918E-003
  0.47289999999999999         -5.6303729888681426E-003
  0.47400000000000009         -6.0567408426819673E-003
  0.47510000000000008         -6.4931399718640218E-003
  0.47620000000000007         -6.9368341507057008E-003
  0.47730000000000006         -7.3847053112453022E-003
  0.47840000000000005         -7.8332581998809669E-003