 -0.12000000000000000          0.0000000000000000     
 -0.11889999999999999          0.0000000000000000     
 -0.11780000000000000          0.0000000000000000     
 -0.11670000000000000          0.0000000000000000     
 -0.11559999999999999          0.0000000000000000     
 -0.11449999999999999          0.0000000000000000     
 -0.11340000000000000          0.0000000000000000     
 -0.11230000000000000          0.0000000000000000     
 -0.11119999999999999          0.0000000000000000     
 -0.11009999999999999          0.0000000000000000     
 -0.10900000000000000          0.0000000000000000     
 -0.10790000000000000          0.0000000000000000     
 -0.10679999999999999          0.0000000000000000     
 -0.10569999999999999          0.0000000000000000     
 -0.10460000000000000          0.0000000000000000     
 -0.10349999999999999          0.0000000000000000     
 -0.10239999999999999          0.0000000000000000     
 -0.10130000000000000          0.0000000000000000     
 -0.10020000000000000          0.0000000000000000     
  -9.9099999999999994E-002     0.0000000000000000     
  -9.7999999999999990E-002     0.0000000000000000     
  -9.6899999999999986E-002     0.0000000000000000     
  -9.5799999999999996E-002     0.0000000000000000     
  -9.4699999999999993E-002     0.0000000000000000     
  -9.3599999999999989E-002     0.0000000000000000     
  -9.2499999999999999E-002     0.0000000000000000     
  -9.1399999999999995E-002     0.0000000000000000     
  -9.0299999999999991E-002     0.0000000000000000     
  -8.9200000000000002E-002     0.0000000000000000     
  -8.8099999999999984E-002     0.0000000000000000     
  -8.6999999999999994E-002     0.0000000000000000     
  -8.5899999999999990E-002     0.0000000000000000     
  -8.4799999999999986E-002     0.0000000000000000     
  -8.3699999999999997E-002     0.0000000000000000     
  -8.2599999999999993E-002     0.0000000000000000     
  -8.1499999999999989E-002     0.0000000000000000     
  -8.0399999999999999E-002     0.0000000000000000     
  -7.9299999999999995E-002     0.0000000000000000     
  -7.8199999999999992E-002     0.0000000000000000     
  -7.7100000000000002E-002     0.0000000000000000     
  -7.5999999999999984E-002     0.0000000000000000     
  -7.4899999999999994E-002     0.0000000000000000     
  -7.3799999999999991E-002     0.0000000000000000     
  -7.2699999999999987E-002     0.0000000000000000     
  -7.1599999999999997E-002     0.0000000000000000     
  -7.0499999999999993E-002     0.0000000000000000     
  -6.9399999999999989E-002     0.0000000000000000     
  -6.8300000000000000E-002     0.0000000000000000     
  -6.7199999999999996E-002     0.0000000000000000     
  -6.6099999999999992E-002     0.0000000000000000     
  -6.5000000000000002E-002     0.0000000000000000     
  -6.3899999999999985E-002     0.0000000000000000     
  -6.2799999999999995E-002     0.0000000000000000     
  -6.1699999999999991E-002     0.0000000000000000     
  -6.0599999999999994E-002     0.0000000000000000     
  -5.9499999999999990E-002     0.0000000000000000     
  -5.8399999999999994E-002     0.0000000000000000     
  -5.7299999999999990E-002     0.0000000000000000     
  -5.6199999999999986E-002     0.0000000000000000     
  -5.5099999999999996E-002     0.0000000000000000     
  -5.3999999999999992E-002     0.0000000000000000     
  -5.2899999999999989E-002     0.0000000000000000     
  -5.1799999999999985E-002     0.0000000000000000     
  -5.0699999999999995E-002     0.0000000000000000     
  -4.9599999999999991E-002     0.0000000000000000     
  -4.8499999999999988E-002     0.0000000000000000     
  -4.7399999999999998E-002     0.0000000000000000     
  -4.6299999999999994E-002     0.0000000000000000     
  -4.5199999999999990E-002    -1.0947644252537633E-046
  -4.4099999999999986E-002    -5.4738221262688167E-047
  -4.2999999999999997E-002     2.7198262499641159E-046
  -4.1899999999999993E-002     1.0694521741146296E-045
  -4.0799999999999989E-002    -1.1289340515943483E-046
  -3.9699999999999985E-002    -2.5237803783851056E-045
  -3.8599999999999995E-002    -3.0886291919163369E-045
  -3.7499999999999992E-002     2.4036712602234965E-045
  -3.6399999999999988E-002     1.4071521614878975E-044
  -3.5299999999999984E-002     1.7887887590531635E-044
  -3.4199999999999994E-002    -8.7761451210493139E-045
  -3.3099999999999991E-002    -6.7970324870991307E-044
  -3.1999999999999987E-002    -9.0121923827565874E-044
  -3.0899999999999997E-002     3.6530045836459035E-044
  -2.9799999999999993E-002     3.1323396878843393E-043
  -2.8699999999999989E-002     4.3592305368702025E-043
  -2.7599999999999986E-002    -1.0162430883159676E-043
  -2.6499999999999996E-002    -1.3433769985841426E-042
  -2.5399999999999992E-002    -2.0293717742204911E-042
  -2.4299999999999988E-002     3.7018937516741950E-044
  -2.3199999999999985E-002     5.3142240378399226E-042
  -2.2099999999999995E-002     9.0070155102186631E-042
  -2.0999999999999991E-002     1.9890069653512604E-042
  -1.9899999999999987E-002    -1.9132201472018405E-041
  -1.8799999999999983E-002    -3.7713500978337790E-041
  -1.7699999999999994E-002    -1.7759156621779496E-041
  -1.6599999999999990E-002     6.1019139421701813E-041
  -1.5499999999999986E-002     1.4726253454898473E-040
  -1.4399999999999996E-002     1.0754540198150112E-040
  -1.3299999999999992E-002    -1.6207296193577622E-040
  -1.2199999999999989E-002    -5.2883300054433920E-040
  -1.1099999999999985E-002    -5.3389562232774506E-040
  -9.9999999999999950E-003     2.9220977172066603E-040
  -8.8999999999999913E-003     1.7120832017826650E-039
  -7.7999999999999875E-003     2.2889176609575488E-039
  -6.6999999999999837E-003     1.2995059820731695E-040
  -5.5999999999999939E-003    -4.8260148201587324E-039
  -4.4999999999999901E-003    -8.6068937562642189E-039
  -3.3999999999999864E-003    -4.3888572351679884E-039
  -2.2999999999999826E-003     1.0934308958563630E-038
  -1.1999999999999927E-003     2.8285969133416429E-038
  -9.9999999999988987E-005     2.5840001146971763E-038
   1.0000000000000148E-003    -1.4634592108009474E-038
   2.1000000000000185E-003    -7.9324534145336500E-038
   3.2000000000000084E-003    -1.0764328775343993E-037
   4.3000000000000121E-003    -2.4342042941427868E-038
   5.4000000000000159E-003     1.7736386413686383E-037
   6.5000000000000058E-003     3.5913972633225835E-037
   7.6000000000000234E-003     2.7083092675690767E-037
   8.7000000000000133E-003    -2.4442597007275946E-037
   9.8000000000000032E-003    -9.6738764979019391E-037
   1.0900000000000021E-002    -1.2164806206812988E-036
   1.2000000000000011E-002    -2.4022001159676218E-037
   1.3100000000000001E-002     1.9516327246216879E-036
   1.4200000000000018E-002     3.9097068780636852E-036
   1.5300000000000008E-002     3.1423235412639815E-036
   1.6400000000000026E-002    -1.9410197957031842E-036
   1.7500000000000016E-002    -9.4323465201181530E-036
   1.8600000000000005E-002    -1.3044952943089579E-035
   1.9700000000000023E-002    -5.3635847945965124E-036
   2.0800000000000013E-002     1.4943131779343689E-035
   2.1900000000000003E-002     3.6575939973876276E-035
   2.3000000000000020E-002     3.7341711410511077E-035
   2.4100000000000010E-002    -1.0333851637892827E-036
   2.5200000000000000E-002    -7.0346139587348178E-035
   2.6300000000000018E-002    -1.2328565122830746E-034
   2.7400000000000008E-002    -9.1708916272560598E-035
   2.8500000000000025E-002     5.9217820708391482E-035
   2.9600000000000015E-002     2.6936168082848096E-034
   3.0700000000000005E-002     3.7200473645686826E-034
   3.1800000000000023E-002     1.8187384163496863E-034
   3.2900000000000013E-002    -3.3207964244758207E-034
   3.4000000000000002E-002    -9.0108262497946222E-034
   3.5100000000000020E-002    -1.0048706317307679E-033
   3.6200000000000010E-002    -2.0685709393796757E-034
   3.7300000000000028E-002     1.3523730361957630E-033
   3.8400000000000017E-002     2.6840788898353745E-033
   3.9500000000000007E-002     2.3343294175659330E-033
   4.0600000000000025E-002    -4.9613870082970167E-034
   4.1700000000000015E-002    -4.6968632523690743E-033
   4.2800000000000005E-002    -7.0307396235809291E-033
   4.3900000000000022E-002    -3.9239846895257621E-033
   4.5000000000000012E-002     5.1122104295420168E-033
   4.6100000000000002E-002     1.4760142936907395E-032
   4.7200000000000020E-002     1.5230151689747135E-032
   4.8300000000000010E-002    -6.6025789332574161E-034
   4.9400000000000027E-002    -2.7682283312723808E-032
   5.0500000000000017E-002    -4.3939692501722287E-032
   5.1600000000000007E-002    -2.1232176356661388E-032
   5.2700000000000025E-002     4.8925342843802210E-032
   5.3800000000000014E-002     1.2829404502669152E-031
   5.4900000000000004E-002     1.3202536802322563E-031
   5.6000000000000022E-002    -2.0462623552295230E-032
   5.7100000000000012E-002    -3.1287418623624222E-031
   5.8200000000000002E-002    -5.5788861210319268E-031
   5.9300000000000019E-002    -4.3520661160995564E-031
   6.0400000000000009E-002     2.9687494686110741E-031
   6.1500000000000027E-002     1.4763242182492654E-030
   6.2600000000000017E-002     2.3238475298734348E-030
   6.3700000000000007E-002     1.6511003559240069E-030
   6.4800000000000024E-002    -1.3425477705185423E-030
   6.5900000000000014E-002    -5.9403257563771911E-030
   6.7000000000000004E-002    -9.2321335229283945E-030
   6.8100000000000022E-002    -6.9118076671789896E-030
   6.9200000000000012E-002     3.9511740521677618E-030
   7.0300000000000029E-002     2.1055531463839088E-029
   7.1400000000000019E-002     3.4511795033426544E-029
   7.2500000000000009E-002     2.9292194499403422E-029
   7.3600000000000027E-002    -5.8359040701516621E-030
   7.4700000000000016E-002    -6.5550823331583685E-029
   7.5800000000000006E-002    -1.1936688531724594E-028
   7.6900000000000024E-002    -1.1762952109538196E-028
   7.8000000000000014E-002    -1.8054310104581464E-029
   7.9100000000000004E-002     1.7399471782859560E-028
   8.0200000000000021E-002     3.7450400584004948E-028
   8.1300000000000011E-002     4.3086606349040070E-028
   8.2400000000000029E-002     1.9381030373844101E-028
   8.3500000000000019E-002    -3.6316994346518042E-028
   8.4600000000000009E-002    -1.0386707851691725E-027
   8.5700000000000026E-002    -1.4041555102604898E-027
   8.6800000000000016E-002    -9.7958861777209458E-028
   8.7900000000000006E-002     4.3832641724890892E-028
   8.9000000000000024E-002     2.4491863960405640E-027
   9.0100000000000013E-002     3.9718751075498556E-027
   9.1200000000000003E-002     3.6278054477794160E-027
   9.2300000000000021E-002     5.7172801348998669E-028
   9.3400000000000011E-002    -4.5893995058130548E-027
   9.4500000000000028E-002    -9.4256650414292487E-027
   9.5600000000000018E-002    -1.0449140763642855E-026
   9.6700000000000008E-002    -5.0738668576558698E-027
   9.7800000000000026E-002     6.0489400346147750E-027
   9.8900000000000016E-002     1.7890880636882762E-026
  0.10000000000000001          2.2629026321759564E-026
  0.10110000000000002          1.4205439138359332E-026
  0.10220000000000001         -6.1097923826735499E-027
  0.10330000000000003         -2.7099242577686581E-026
  0.10440000000000002         -3.1834604623656433E-026
  0.10550000000000001         -9.3938646004209671E-027
  0.10660000000000003          3.1261118137841762E-026
  0.10770000000000002          5.6026838610512157E-026
  0.10880000000000001          1.9931971313959099E-026
  0.10990000000000003         -9.7135003327350320E-026
  0.11100000000000002         -2.4844077991677823E-025
  0.11210000000000001         -3.0437580277167115E-025
  0.11320000000000002         -9.7579757542096813E-026
  0.11430000000000001          4.5921509948344238E-025
  0.11540000000000003          1.2219476482278938E-024
  0.11650000000000002          1.7279245689189366E-024
  0.11760000000000001          1.2950534437513446E-024
  0.11870000000000003         -6.2032059941413744E-025
  0.11980000000000002         -3.8778615696706544E-024
  0.12090000000000001         -7.1861189731236635E-024
  0.12200000000000003         -8.1216553321218391E-024
  0.12310000000000001         -3.9904833229387926E-024
  0.12420000000000003          6.4546474129485244E-024
  0.12530000000000002          2.1019939575923347E-023
  0.12640000000000001          3.2979436389467024E-023
  0.12750000000000003          3.2273659342752853E-023
  0.12860000000000002          9.7965645305992227E-024
  0.12970000000000001         -3.5938162875288517E-023
  0.13080000000000003         -9.2486389734184740E-023
  0.13190000000000002         -1.3181261673128633E-022
  0.13300000000000001         -1.1737632678825686E-022
  0.13410000000000000         -2.1159603669697004E-023
  0.13520000000000004          1.5359762542154424E-022
  0.13630000000000003          3.5428431163374544E-022
  0.13740000000000002          4.7918361782218232E-022
  0.13850000000000001          4.0702253430968519E-022
  0.13960000000000000          5.5727047064424005E-023
  0.14070000000000005         -5.4684548067740050E-022
  0.14180000000000004         -1.2140790770420827E-021
  0.14290000000000003         -1.6137885890769790E-021
  0.14400000000000002         -1.3702350604899987E-021
  0.14510000000000001         -2.4630605047749876E-022
  0.14620000000000000          1.6518343372287980E-021
  0.14730000000000004          3.7474242625736537E-021
  0.14840000000000003          5.0513976803936497E-021
  0.14950000000000002          4.4684943992976674E-021
  0.15060000000000001          1.3117063448042868E-021
  0.15170000000000000         -4.1430573524734051E-021
  0.15280000000000005         -1.0329691472458978E-020
  0.15390000000000004         -1.4564371404966061E-020
  0.15500000000000003         -1.3856118704470819E-020
  0.15610000000000002         -6.2309883398429615E-021
  0.15720000000000001          7.8652068496060815E-021
  0.15830000000000000          2.4740135417424219E-020
  0.15940000000000004          3.7839473239520891E-020
  0.16050000000000003          3.9637094716821151E-020
  0.16160000000000002          2.4710539594581693E-020
  0.16270000000000001         -7.0035274682374622E-021
  0.16380000000000000         -4.8221904452353751E-020
  0.16490000000000005         -8.4944656952590065E-020
  0.16600000000000004         -1.0027616207607549E-019
  0.16710000000000003         -8.0717806908940006E-020
  0.16820000000000002         -2.2863417460338515E-020
  0.16930000000000001          6.2343169420633529E-020
  0.17040000000000000          1.5028457645304602E-019
  0.17150000000000004          2.0917386900933545E-019
  0.17260000000000003          2.1086115952171578E-019
  0.17370000000000002          1.4215543477235741E-019
  0.17480000000000001          1.1919988142271749E-020
  0.17590000000000000         -1.4966247097138535E-019
  0.17700000000000005         -3.0012726156499191E-019
  0.17810000000000004         -3.9859744096330077E-019
  0.17920000000000003         -4.1819620555396240E-019
  0.18030000000000002         -3.5085559095059213E-019
  0.18140000000000001         -2.0217231245055301E-019
  0.18250000000000000          1.9827375167011256E-020
  0.18360000000000004          3.1261758931065907E-019
  0.18470000000000003          6.7335387005279577E-019
  0.18580000000000002          1.0748390615041145E-018
  0.18690000000000001          1.4310858060227849E-018
  0.18800000000000000          1.5739514488802257E-018
  0.18910000000000005          1.2693918467489646E-018
  0.19020000000000004          2.9457245929290095E-019
  0.19130000000000003         -1.4276373859183465E-018
  0.19240000000000002         -3.6768912399678564E-018
  0.19350000000000001         -5.8402736942535045E-018
  0.19460000000000005         -6.9589790713442698E-018
  0.19570000000000004         -5.9734163006703381E-018
  0.19680000000000003         -2.1517330303909048E-018
  0.19790000000000002          4.4112949233404185E-018
  0.19900000000000001          1.2425275382145472E-017
  0.20010000000000000          1.9394744130540820E-017
  0.20120000000000005          2.2132406296610623E-017
  0.20230000000000004          1.7789176553757389E-017
  0.20340000000000003          5.1620696514181344E-018
  0.20450000000000002         -1.4173574456301646E-017
  0.20560000000000000         -3.5453675075561676E-017
  0.20670000000000005         -5.1469402510187483E-017
  0.20780000000000004         -5.4558456439695336E-017
  0.20890000000000003         -3.9443379171726903E-017
  0.21000000000000002         -6.0339020238036302E-018
  0.21110000000000001          3.8952513234761133E-017
  0.21220000000000000          8.2562611404399828E-017
  0.21330000000000005          1.0878826849855656E-016
  0.21440000000000003          1.0383649911494812E-016
  0.21550000000000002          6.1981342249036553E-017
  0.21660000000000001         -1.0155737160404580E-017
  0.21770000000000000         -9.3000660701458876E-017
  0.21880000000000005         -1.5829669505828186E-016
  0.21990000000000004         -1.7783691307070567E-016
  0.22100000000000003         -1.3439410585947012E-016
  0.22210000000000002         -3.1164205519702678E-017
  0.22320000000000001          1.0429224924181410E-016
  0.22430000000000000          2.2449582302359534E-016
  0.22540000000000004          2.7528359357952672E-016
  0.22650000000000003          2.1505097104022437E-016
  0.22760000000000002          3.4362524356665363E-017
  0.22870000000000001         -2.3111971342250553E-016
  0.22980000000000000         -5.0064935086457980E-016
  0.23090000000000005         -6.6449145488366235E-016
  0.23200000000000004         -6.1449101699655969E-016
  0.23310000000000003         -2.8244195139277530E-016
  0.23420000000000002          3.2419868394977948E-016
  0.23530000000000001          1.1008906887381368E-015
  0.23640000000000000          1.8484884229670294E-015
  0.23750000000000004          2.3042745987196163E-015
  0.23860000000000003          2.1994931469151223E-015
  0.23970000000000002          1.3343968669891573E-015
  0.24080000000000001         -3.4376195980482273E-016
  0.24190000000000000         -2.6775824270274609E-015
  0.24300000000000005         -5.2693203139524362E-015
  0.24410000000000004         -7.4992289470269169E-015
  0.24520000000000003         -8.6026598541865306E-015
  0.24630000000000002         -7.8080047846191559E-015
  0.24740000000000001         -4.5263214271731977E-015
  0.24850000000000005          1.4305944047421965E-015
  0.24960000000000004          9.6427423100873590E-015
  0.25070000000000003          1.8938744215199631E-014
  0.25180000000000002          2.7379103254312723E-014
  0.25290000000000001          3.2424409254182959E-014
  0.25400000000000000          3.1325383433455296E-014
  0.25510000000000005          2.1729837768586369E-014
  0.25620000000000004          2.4418599892873760E-015
  0.25730000000000003         -2.5799082844255724E-014
  0.25840000000000002         -5.9710978273251338E-014
  0.25950000000000001         -9.3257294479924894E-014
  0.26060000000000005         -1.1803751299341803E-013
  0.26170000000000004         -1.2441183396263292E-013
  0.26280000000000003         -1.0335564045191234E-013
  0.26390000000000002         -4.8859011109324498E-014
  0.26500000000000001          3.9508838273298192E-014
  0.26610000000000000          1.5441600980952981E-013
  0.26720000000000005          2.7960111352218115E-013
  0.26830000000000004          3.9033220486445296E-013
  0.26940000000000003          4.5592836035808923E-013
  0.27050000000000002          4.4446467956333267E-013
  0.27160000000000001          3.2934624824263163E-013
  0.27270000000000005          9.6945597741062836E-014
  0.27380000000000004         -2.4597095136784548E-013
  0.27490000000000003         -6.6663958921995430E-013
  0.27600000000000002         -1.1042418939574109E-012
  0.27710000000000001         -1.4729236063101701E-012
  0.27820000000000000         -1.6708661058363714E-012
  0.27930000000000005         -1.5954914703645337E-012
  0.28040000000000004         -1.1637251426003774E-012
  0.28150000000000003         -3.3495323894175375E-013
  0.28260000000000002          8.6689579673060646E-013
  0.28370000000000001          2.3365805082873953E-012
  0.28480000000000005          3.8808533618817583E-012
  0.28590000000000004          5.2261618388370267E-012
  0.28700000000000003          6.0436935671262129E-012
  0.28810000000000002          5.9925102753835073E-012
  0.28920000000000001          4.7784837374599167E-012
  0.29030000000000000          2.2233548097448380E-012
  0.29140000000000005         -1.6652333337725603E-012
  0.29250000000000004         -6.6346707648341374E-012
  0.29360000000000003         -1.2152922703754639E-011
  0.29470000000000002         -1.7412067675188222E-011
  0.29580000000000001         -2.1380766531129490E-011
  0.29690000000000005         -2.2911547072867913E-011
  0.29800000000000004         -2.0901396322839447E-011
  0.29910000000000003         -1.4494743542490970E-011
  0.30020000000000002         -3.3077286660251430E-012
  0.30130000000000001          1.2357084125484482E-011
  0.30240000000000000          3.1343629483620670E-011
  0.30350000000000005          5.1564331090838054E-011
  0.30460000000000004          7.0049937054081161E-011
  0.30570000000000003          8.3156508262918971E-011
  0.30680000000000002          8.6942256933896498E-011
  0.30790000000000001          7.7703636761382691E-011
  0.30900000000000005          5.2632437324090742E-011
  0.31010000000000004          1.0527331865146967E-011
  0.31120000000000003         -4.7533456710180485E-011
  0.31230000000000002         -1.1767003967096062E-010
  0.31340000000000001         -1.9294750544046643E-010
  0.31450000000000006         -2.6350154776726153E-010
  0.31560000000000005         -3.1712642425690542E-010
  0.31670000000000004         -3.4036419683369029E-010
  0.31780000000000003         -3.2007283582023646E-010
  0.31890000000000002         -2.4538000421576594E-010
  0.32000000000000001         -1.0985365941347700E-010
  0.32110000000000005          8.6349983979350168E-011
  0.32220000000000004          3.3465458991497974E-010
  0.32330000000000003          6.1686937495436524E-010
  0.32440000000000002          9.0494778340043103E-010
  0.32550000000000001          1.1619634256589100E-009
  0.32660000000000006          1.3444833759874238E-009
  0.32770000000000005          1.4063811881077718E-009
  0.32880000000000004          1.3039713169313900E-009
  0.32990000000000003          1.0021654834884057E-009
  0.33100000000000002          4.8116837487525931E-010
  0.33210000000000001         -2.5692368083672404E-010
  0.33320000000000005         -1.1823901963800886E-009
  0.33430000000000004         -2.2338406843675529E-009
  0.33540000000000003         -3.3166621915570112E-009
  0.33650000000000002         -4.3046631336912397E-009
  0.33760000000000001         -5.0454323710920248E-009
  0.33870000000000006         -5.3696573252710024E-009
  0.33980000000000005         -5.1043385685610182E-009
  0.34090000000000004         -4.0894864224916106E-009
  0.34200000000000003         -2.1975314011789677E-009
  0.34310000000000002          6.4559453602252725E-010
  0.34420000000000001          4.4389657580952270E-009
  0.34530000000000005          9.0861001187354886E-009
  0.34640000000000004          1.4376581613142678E-008
  0.34750000000000003          1.9970855089502998E-008
  0.34860000000000002          2.5388796075513428E-008
  0.34970000000000001          3.0002002742782448E-008
  0.35080000000000006          3.3029237351031110E-008
  0.35190000000000005          3.3533485426193944E-008
  0.35300000000000004          3.0418312213814510E-008
  0.35410000000000003          2.2420746497113014E-008
  0.35520000000000002          8.0969239913464321E-009
  0.35630000000000001         -1.4203868973184221E-008
  0.35740000000000005         -4.6380795160639687E-008
  0.35850000000000004         -9.0643338410204830E-008
  0.35960000000000003         -1.4959792172141478E-007
  0.36070000000000002         -2.2636415387754641E-007
  0.36180000000000001         -3.2472465159442845E-007
  0.36290000000000006         -4.4931133743846917E-007
  0.36400000000000005         -6.0583233936776803E-007
  0.36510000000000004         -8.0134419728259177E-007
  0.36620000000000003         -1.0445720060929623E-006
  0.36730000000000002         -1.3462807159688115E-006
  0.36840000000000006         -1.7197046189319491E-006
  0.36950000000000005         -2.1810380122916904E-006
  0.37060000000000004         -2.7499998004748018E-006
  0.37170000000000003         -3.4504725194061195E-006
  0.37280000000000002         -4.3112348861966133E-006
  0.37390000000000001         -5.3667907108804818E-006
  0.37500000000000006         -6.6583022337650497E-006
  0.37610000000000005         -8.2346654563935241E-006
  0.37720000000000004         -1.0153721679090723E-005
  0.37830000000000003         -1.2483618959845816E-005
  0.37940000000000002         -1.5304344741978346E-005
  0.38050000000000006         -1.8709426431283839E-005
  0.38160000000000005         -2.2807856055463835E-005
  0.38270000000000004         -2.7726196658510818E-005
  0.38380000000000003         -3.3610912785670831E-005
  0.38490000000000002         -4.0630791591392094E-005
  0.38600000000000001         -4.8979736970325037E-005
  0.38710000000000000         -5.8879548752503470E-005
  0.38819999999999999         -7.0583065952598131E-005
  0.38930000000000009         -8.4377359050428775E-005
  0.39040000000000008         -1.0058695062016131E-004
  0.39150000000000007         -1.1957702196809450E-004
  0.39260000000000006         -1.4175688382542283E-004
  0.39370000000000005         -1.6758301343647655E-004
  0.39480000000000004         -1.9756238609019636E-004
  0.39590000000000003         -2.3225515309164939E-004
  0.39700000000000002         -2.7227714735059919E-004
  0.39810000000000001         -3.1830163608974685E-004
  0.39920000000000000         -3.7106131468300253E-004
  0.40029999999999999         -4.3134822979857233E-004
  0.40140000000000009         -5.0001462450973908E-004
  0.40250000000000008         -5.7797028093014777E-004
  0.40360000000000007         -6.6618071152460545E-004
  0.40470000000000006         -7.6566283231807586E-004
  0.40580000000000005         -8.7748014130129698E-004
  0.40690000000000004         -1.0027349426925437E-003
  0.40800000000000003         -1.1425595345332246E-003
  0.40910000000000002         -1.2981035681251252E-003
  0.41020000000000001         -1.4705213198007300E-003
  0.41130000000000000         -1.6609561825410984E-003
  0.41239999999999999         -1.8705224047642008E-003
  0.41350000000000009         -2.1002860530145440E-003
  0.41460000000000008         -2.3512394656569208E-003
  0.41570000000000007         -2.6242772912627860E-003
  0.41680000000000006         -2.9201648946094727E-003
  0.41790000000000005         -3.2395183502564318E-003
  0.41900000000000004         -3.5827658399632117E-003
  0.42010000000000003         -3.9501266222063819E-003
  0.42120000000000002         -4.3415590213199406E-003
  0.42230000000000001         -4.7567480955353347E-003
  0.42340000000000000         -5.1950527456953166E-003
  0.42449999999999999         -5.6554919987068242E-003
  0.42560000000000009         -6.1367047669677321E-003
  0.42670000000000008         -6.6369162128391002E-003
  0.42780000000000007         -7.1539393326217893E-003
  0.42890000000000006         -7.6851384030446057E-003
  0.43000000000000005         -8.2274055836813187E-003
  0.43110000000000004         -8.7771508929583852E-003
  0.43220000000000003         -9.3303088980459248E-003
  0.43330000000000002         -9.8823633514056319E-003
  0.43440000000000001         -1.0428344500164499E-002
  0.43550000000000000         -1.0962837212185939E-002
  0.43659999999999999         -1.1480017091278161E-002
  0.43770000000000009         -1.1973694208931462E-002
  0.43880000000000008         -1.2437399277309358E-002
  0.43990000000000007         -1.2864403439314109E-002
  0.44100000000000006         -1.3247782485890480E-002
  0.44210000000000005         -1.3580519861307316E-002
  0.44320000000000004         -1.3855599109204031E-002
  0.44430000000000003         -1.4066089985147523E-002
  0.44540000000000002         -1.4205243604957896E-002
  0.44650000000000001         -1.4266592498793085E-002
  0.44760000000000000         -1.4244067592441234E-002
  0.44869999999999999         -1.4132127765039193E-002
  0.44980000000000009         -1.3925863220001056E-002
  0.45090000000000008         -1.3621042549461171E-002
  0.45200000000000007         -1.3214293280390643E-002
  0.45310000000000006         -1.2703124136239696E-002
  0.45420000000000005         -1.2086106123525564E-002
  0.45530000000000004         -1.1362920423087841E-002
  0.45640000000000003         -1.0534354673650471E-002
  0.45750000000000002         -9.6023813468111372E-003
  0.45860000000000001         -8.5701984518684188E-003
  0.45970000000000000         -7.4422404167434203E-003
  0.46079999999999999         -6.2241937093673594E-003
  0.46190000000000009         -4.9229691314525426E-003
  0.46300000000000008         -3.5465791501245736E-003
  0.46410000000000007         -2.1041839612328944E-003
  0.46520000000000006         -6.0593089407176559E-004
  0.46630000000000005          9.3715327633368123E-004
  0.46740000000000004          2.5132090996332901E-003
  0.46850000000000003          4.1097246324126591E-003
  0.46960000000000002          5.7137058962087317E-003
  0.47070000000000001          7.3118201009396699E-003
  0.47180000000000000          8.8905806621306371E-003
  0.47289999999999999          1.0436478431787743E-002
  0.47400000000000009          1.1936173995628574E-002
  0.47510000000000008          1.3376627697217647E-002
  0.47620000000000007          1.4745348472215203E-002
  0.47730000000000006          1.6030536921312233E-002
  0.47840000000000005          1.7221184435669445E-002