 -0.12000000000000000          0.0000000000000000     
 -0.11889999999999999          0.0000000000000000     
 -0.11780000000000000          0.0000000000000000     
 -0.11670000000000000          0.0000000000000000     
 -0.11559999999999999          0.0000000000000000     
 -0.11449999999999999          0.0000000000000000     
 -0.11340000000000000          0.0000000000000000     
 -0.11230000000000000          0.0000000000000000     
 -0.11119999999999999          0.0000000000000000     
 -0.11009999999999999          0.0000000000000000     
 -0.10900000000000000          0.0000000000000000     
 -0.10790000000000000          0.0000000000000000     
 -0.10679999999999999          0.0000000000000000     
 -0.10569999999999999          0.0000000000000000     
 -0.10460000000000000          0.0000000000000000     
 -0.10349999999999999          0.0000000000000000     
 -0.10239999999999999          0.0000000000000000     
 -0.10130000000000000          0.0000000000000000     
 -0.10020000000000000          0.0000000000000000     
  -9.9099999999999994E-002     0.0000000000000000     
  -9.7999999999999990E-002     0.0000000000000000     
  -9.6899999999999986E-002     1.9952056742041146E-051
  -9.5799999999999996E-002    -1.9234861101476516E-050
  -9.4699999999999993E-002    -4.0548431378310408E-047
  -9.3599999999999989E-002     1.6145046148747344E-046
  -9.2499999999999999E-002     1.3145248211333472E-045
  -9.1399999999999995E-002     1.6855725118879600E-045
  -9.0299999999999991E-002    -2.5247862629659472E-045
  -8.9200000000000002E-002    -5.2977610391972495E-044
  -8.8099999999999984E-002    -1.7921327313252900E-043
  -8.6999999999999994E-002    -1.5278765754276180E-043
  -8.5899999999999990E-002     1.1042883426651478E-042
  -8.4799999999999986E-002     5.3471531101911712E-042
  -8.3699999999999997E-002     1.0260195431656114E-041
  -8.2599999999999993E-002    -4.3131396429114998E-042
  -8.1499999999999989E-002    -8.7841311500348069E-041
  -8.0399999999999999E-002    -2.6903778894921127E-040
  -7.9299999999999995E-002    -3.3757671816615904E-040
  -7.8199999999999992E-002     5.2481814353734812E-040
  -7.7100000000000002E-002     3.6584483979306578E-039
  -7.5999999999999984E-002     8.7748348144229016E-039
  -7.4899999999999994E-002     8.1808058206597530E-039
  -7.3799999999999991E-002    -1.9449905883084793E-038
  -7.2699999999999987E-002    -1.0009870156046822E-037
  -7.1599999999999997E-002    -2.1154468194724719E-037
  -7.0499999999999993E-002    -1.7532596621973691E-037
  -6.9399999999999989E-002     4.1979215513511145E-037
  -6.8300000000000000E-002     1.9886601636316855E-036
  -6.7199999999999996E-002     4.0282275722377723E-036
  -6.6099999999999992E-002     3.5226862422368294E-036
  -6.5000000000000002E-002    -5.8627964062535447E-036
  -6.3899999999999985E-002    -3.0106027707181194E-035
  -6.2799999999999995E-002    -6.2317154813891914E-035
  -6.1699999999999991E-002    -6.2907344514539745E-035
  -6.0599999999999994E-002     4.9258681044882724E-035
  -5.9499999999999990E-002     3.5374474810167555E-034
  -5.8399999999999994E-002     7.8969877780749511E-034
  -5.7299999999999990E-002     9.4102175246319629E-034
  -5.6199999999999986E-002    -7.1491520753783629E-035
  -5.5099999999999996E-002    -3.2020122951373559E-033
  -5.3999999999999992E-002    -8.1883775504395538E-033
  -5.2899999999999989E-002    -1.1501122913243801E-032
  -5.1799999999999985E-002    -5.0428652334428806E-033
  -5.0699999999999995E-002     2.1180370396336541E-032
  -4.9599999999999991E-002     6.8897678803452833E-032
  -4.8499999999999988E-002     1.1433366282600793E-031
  -4.7399999999999998E-002     9.4305126734879002E-032
  -4.6299999999999994E-002    -8.0902787530461638E-032
  -4.5199999999999990E-002    -4.6005305154091414E-031
  -4.4099999999999986E-002    -9.2415060481576960E-031
  -4.2999999999999997E-002    -1.0599090028907066E-030
  -4.1899999999999993E-002    -1.8324990557330109E-031
  -4.0799999999999989E-002     2.2890986594706689E-030
  -3.9699999999999985E-002     6.0303864218971244E-030
  -3.8599999999999995E-002     8.8294140031513030E-030
  -3.7499999999999992E-002     6.2845857298059226E-030
  -3.6399999999999988E-002    -6.5822044519839908E-030
  -3.5299999999999984E-002    -3.0900962226367245E-029
  -3.4199999999999994E-002    -5.7588718409014423E-029
  -3.3099999999999991E-002    -6.3024279123916716E-029
  -3.1999999999999987E-002    -1.3707634479040803E-029
  -3.0899999999999997E-002     1.1347437398577930E-028
  -2.9799999999999993E-002     2.9596569270345375E-028
  -2.8699999999999989E-002     4.3099080289897424E-028
  -2.7599999999999986E-002     3.3522074976781823E-028
  -2.6499999999999996E-002    -1.8135872654941039E-028
  -2.5399999999999992E-002    -1.1506142368916073E-027
  -2.4299999999999988E-002    -2.2377198778202431E-027
  -2.3199999999999985E-002    -2.6267353486693308E-027
  -2.2099999999999995E-002    -1.2024433028322786E-027
  -2.0999999999999991E-002     2.8151097865996009E-027
  -1.9899999999999987E-002     8.8546117431375698E-027
  -1.8799999999999983E-002     1.4063331480450582E-026
  -1.7699999999999994E-002     1.3324664084679637E-026
  -1.6599999999999990E-002     1.1469088614300373E-027
  -1.5499999999999986E-002    -2.4291326398838645E-026
  -1.4399999999999996E-002    -5.6123711734497040E-026
  -1.3299999999999992E-002    -7.5872429396188867E-026
  -1.2199999999999989E-002    -5.6847816887592285E-026
  -1.1099999999999985E-002     2.3005588770707127E-026
  -9.9999999999999950E-003     1.6019435238818331E-025
  -8.8999999999999913E-003     3.0541866455892826E-025
  -7.7999999999999875E-003     3.5970629487346955E-025
  -6.6999999999999837E-003     2.0377992914182971E-025
  -5.5999999999999939E-003    -2.3295816083851538E-025
  -4.4999999999999901E-003    -8.8108144680664985E-025
  -3.3999999999999864E-003    -1.4647290804734318E-024
  -2.2999999999999826E-003    -1.5271648384416999E-024
  -1.1999999999999927E-003    -6.0274250930253829E-025
  -9.9999999999988987E-005     1.4707836415991353E-024
   1.0000000000000148E-003     4.2073707957053611E-024
   2.1000000000000185E-003     6.3055651231341975E-024
   3.2000000000000084E-003     5.9030099952274578E-024
   4.3000000000000121E-003     1.3891058095621447E-024
   5.4000000000000159E-003    -7.3621765146747465E-024
   6.5000000000000058E-003    -1.7850698470765438E-023
   7.6000000000000234E-003    -2.4703199289905224E-023
   8.7000000000000133E-003    -2.1089513116207004E-023
   9.8000000000000032E-003    -2.0163173585512679E-024
   1.0900000000000021E-002     3.1339237239983582E-023
   1.2000000000000011E-002     6.8288677280713296E-023
   1.3100000000000001E-002     8.8987903579923929E-023
   1.4200000000000018E-002     7.0595970834073580E-023
   1.5300000000000008E-002    -9.1865709212948563E-025
   1.6400000000000026E-002    -1.1700685783121359E-022
   1.7500000000000016E-002    -2.3785955292385465E-022
   1.8600000000000005E-002    -2.9696651918765224E-022
   1.9700000000000023E-002    -2.2390543948194103E-022
   2.0800000000000013E-002     1.7529373188966477E-023
   2.1900000000000003E-002     3.8930006974536346E-022
   2.3000000000000020E-002     7.5910124969129459E-022
   2.4100000000000010E-002     9.2257049963892483E-022
   2.5200000000000000E-002     6.7771470360594608E-022
   2.6300000000000018E-002    -6.2732107628974195E-023
   2.7400000000000008E-002    -1.1638664673881263E-021
   2.8500000000000025E-002    -2.2277470746543974E-021
   2.9600000000000015E-002    -2.6745677860286604E-021
   3.0700000000000005E-002    -1.9615077728848597E-021
   3.1800000000000023E-002     1.1241111954989236E-022
   3.2900000000000013E-002     3.1377311644851424E-021
   3.4000000000000002E-002     6.0214752525824635E-021
   3.5100000000000020E-002     7.2370444543400615E-021
   3.6200000000000010E-002     5.4109087581936369E-021
   3.7300000000000028E-002     8.9546328811007073E-023
   3.8400000000000017E-002    -7.6308078515900094E-021
   3.9500000000000007E-002    -1.4991839492519000E-020
   4.0600000000000025E-002    -1.8250211854463892E-020
   4.1700000000000015E-002    -1.4124153397719012E-020
   4.2800000000000005E-002    -1.5921646800573356E-021
   4.3900000000000022E-002     1.6713655910186401E-020
   4.5000000000000012E-002     3.4365389774186166E-020
   4.6100000000000002E-002     4.2791012986883821E-020
   4.7200000000000020E-002     3.4578265160363682E-020
   4.8300000000000010E-002     7.4271299772379349E-021
   4.9400000000000027E-002    -3.2925871018248478E-020
   5.0500000000000017E-002    -7.2575797564226408E-020
   5.1600000000000007E-002    -9.3132877317284054E-020
   5.2700000000000025E-002    -7.8761065890950530E-020
   5.3800000000000014E-002    -2.4360060701645425E-020
   5.4900000000000004E-002     5.8579987054851368E-020
   5.6000000000000022E-002     1.4193070962539418E-019
   5.7100000000000012E-002     1.8853080760972460E-019
   5.8200000000000002E-002     1.6628805463881675E-019
   5.9300000000000019E-002     6.4257414545521804E-020
   6.0400000000000009E-002    -9.6083693567044465E-020
   6.1500000000000027E-002    -2.6092005023787158E-019
   6.2600000000000017E-002    -3.5879893226423600E-019
   6.3700000000000007E-002    -3.2747637767390853E-019
   6.4800000000000024E-002    -1.4425301130901894E-019
   6.5900000000000014E-002     1.5282417428242494E-019
   6.7000000000000004E-002     4.6486759888245280E-019
   6.8100000000000022E-002     6.5896026831137856E-019
   6.9200000000000012E-002     6.1728758476225890E-019
   7.0300000000000029E-002     2.9295633329490632E-019
   7.1400000000000019E-002    -2.5014054826839292E-019
   7.2500000000000009E-002    -8.3497049420260549E-019
   7.3600000000000027E-002    -1.2173672153854202E-018
   7.4700000000000016E-002    -1.1732158290365585E-018
   7.5800000000000006E-002    -6.0024380721154157E-019
   7.6900000000000024E-002     4.0500849940671675E-019
   7.8000000000000014E-002     1.5338414499099195E-018
   7.9100000000000004E-002     2.3375514480387240E-018
   8.0200000000000021E-002     2.3770009556359634E-018
   8.1300000000000011E-002     1.4077942894450402E-018
   8.2400000000000029E-002    -4.6534898162554605E-019
   8.3500000000000019E-002    -2.7351572802025481E-018
   8.4600000000000009E-002    -4.5860740329871596E-018
   8.5700000000000026E-002    -5.1360487079952352E-018
   8.6800000000000016E-002    -3.7680437515896088E-018
   8.7900000000000006E-002    -4.4509691847555875E-019
   8.9000000000000024E-002     4.1160681958785849E-018
   9.0100000000000013E-002     8.5139470689513172E-018
   9.1200000000000003E-002     1.1007813722616652E-017
   9.2300000000000021E-002     1.0079765029207952E-017
   9.3400000000000011E-002     5.0596519190017094E-018
   9.4500000000000028E-002    -3.3995335278561200E-018
   9.5600000000000018E-002    -1.3204173520367753E-017
   9.6700000000000008E-002    -2.1190303431639564E-017
   9.7800000000000026E-002    -2.3969685957659198E-017
   9.8900000000000016E-002    -1.9070207661840072E-017
  0.10000000000000001         -6.0441001481770656E-018
  0.10110000000000002          1.2848570865775121E-017
  0.10220000000000001          3.2720229679993077E-017
  0.10330000000000003          4.7057965802624572E-017
  0.10440000000000002          4.9528884203535010E-017
  0.10550000000000001          3.6168536223580650E-017
  0.10660000000000003          7.3033931685798277E-018
  0.10770000000000002         -3.1505991381593561E-017
  0.10880000000000001         -7.0050861818846136E-017
  0.10990000000000003         -9.5751686360147287E-017
  0.11100000000000002         -9.7254523296577175E-017
  0.11210000000000001         -6.8441665148850687E-017
  0.11320000000000002         -1.1603122699865317E-017
  0.11430000000000001          6.1482965783018230E-017
  0.11540000000000003          1.3137927682272979E-016
  0.11650000000000002          1.7573262590200103E-016
  0.11760000000000001          1.7593680193940846E-016
  0.11870000000000003          1.2384990362929905E-016
  0.11980000000000002          2.6296139217644494E-017
  0.12090000000000001         -9.4603087371384843E-017
  0.12200000000000003         -2.0614676636674855E-016
  0.12310000000000001         -2.7408083279625795E-016
  0.12420000000000003         -2.7351932841212208E-016
  0.12530000000000002         -1.9821995006437761E-016
  0.12640000000000001         -6.4643830931013938E-017
  0.12750000000000003          9.1464069674927251E-017
  0.12860000000000002          2.2581230451512624E-016
  0.12970000000000001          3.0061460593340372E-016
  0.13080000000000003          2.9872566961391542E-016
  0.13190000000000002          2.3104775268990943E-016
  0.13300000000000001          1.3305027265624378E-016
  0.13410000000000000          4.9983804257160827E-017
  0.13520000000000004          1.5136314957683882E-017
  0.13630000000000003          2.9547058054142930E-017
  0.13740000000000002          5.3072680972086278E-017
  0.13850000000000001          1.4306883716623097E-017
  0.13960000000000000         -1.5945265384782661E-016
  0.14070000000000005         -4.9963245582524687E-016
  0.14180000000000004         -9.5666038571127306E-016
  0.14290000000000003         -1.3824076652751219E-015
  0.14400000000000002         -1.5510473886116047E-015
  0.14510000000000001         -1.2237960911055174E-015
  0.14620000000000000         -2.4662714210841886E-016
  0.14730000000000004          1.3470628617646135E-015
  0.14840000000000003          3.2681548717127535E-015
  0.14950000000000002          4.9766918159844665E-015
  0.15060000000000001          5.7832921040162918E-015
  0.15170000000000000          5.0416845785927237E-015
  0.15280000000000005          2.3919847231025290E-015
  0.15390000000000004         -2.0158359347193611E-015
  0.15500000000000003         -7.4020608937503600E-015
  0.15610000000000002         -1.2412128789963934E-014
  0.15720000000000001         -1.5377210706768553E-014
  0.15830000000000000         -1.4750673654076928E-014
  0.15940000000000004         -9.6253259453113008E-015
  0.16050000000000003         -1.8737252165264512E-016
  0.16160000000000002          1.2050294244576173E-014
  0.16270000000000001          2.4358767608311499E-014
  0.16380000000000000          3.3291373377642099E-014
  0.16490000000000005          3.5504434831013899E-014
  0.16600000000000004          2.8726408279160618E-014
  0.16710000000000003          1.2625318335626769E-014
  0.16820000000000002         -1.0690723887772669E-014
  0.16930000000000001         -3.6745220866687591E-014
  0.17040000000000000         -5.9415434935408822E-014
  0.17150000000000004         -7.2216317986191451E-014
  0.17260000000000003         -6.9893892193276020E-014
  0.17370000000000002         -4.9960990489162873E-014
  0.17480000000000001         -1.3778241206580034E-014
  0.17590000000000000          3.3146438216037637E-014
  0.17700000000000005          8.1807649257462901E-014
  0.17810000000000004          1.2125712422300779E-013
  0.17920000000000003          1.4080358205222786E-013
  0.18030000000000002          1.3243244698045232E-013
  0.18140000000000001          9.2942303560971865E-014
  0.18250000000000000          2.5323378839746684E-014
  0.18360000000000004         -6.0971197923239760E-014
  0.18470000000000003         -1.5101637462726671E-013
  0.18580000000000002         -2.2660037687764373E-013
  0.18690000000000001         -2.6932409748066362E-013
  0.18800000000000000         -2.6416407911734329E-013
  0.18910000000000005         -2.0293775165432665E-013
  0.19020000000000004         -8.7065366911511020E-014
  0.19130000000000003          7.0948569907428279E-014
  0.19240000000000002          2.4778987551791223E-013
  0.19350000000000001          4.1165512341884052E-013
  0.19460000000000005          5.2663561220695093E-013
  0.19570000000000004          5.5883036825493519E-013
  0.19680000000000003          4.8345252350857808E-013
  0.19790000000000002          2.9180574615976227E-013
  0.19900000000000001         -3.2760276793889437E-015
  0.20010000000000000         -3.6500798008238521E-013
  0.20120000000000005         -7.3451435909824382E-013
  0.20230000000000004         -1.0376666317681592E-012
  0.20340000000000003         -1.1967218360520383E-012
  0.20450000000000002         -1.1455083009475025E-012
  0.20560000000000000         -8.4583080568530908E-013
  0.20670000000000005         -3.0193556437512069E-013
  0.20780000000000004          4.3046854978526793E-013
  0.20890000000000003          1.2438026855988392E-012
  0.21000000000000002          1.9889060466504597E-012
  0.21110000000000001          2.4963280207941858E-012
  0.21220000000000000          2.6067077882024801E-012
  0.21330000000000005          2.2060042249543614E-012
  0.21440000000000003          1.2593926369233764E-012
  0.21550000000000002         -1.6346865715491695E-013
  0.21660000000000001         -1.8789634080306550E-012
  0.21770000000000000         -3.6013825705281001E-012
  0.21880000000000005         -4.9785552523813712E-012
  0.21990000000000004         -5.6493403275551876E-012
  0.22100000000000003         -5.3161149364101646E-012
  0.22210000000000002         -3.8206902970276296E-012
  0.22320000000000001         -1.2086294754974703E-012
  0.22430000000000000          2.2341526324923734E-012
  0.22540000000000004          5.9866015323511028E-012
  0.22650000000000003          9.3480985226495587E-012
  0.22760000000000002          1.1544204913296921E-011
  0.22870000000000001          1.1871573736402655E-011
  0.22980000000000000          9.8600128690577677E-012
  0.23090000000000005          5.4209457672200810E-012
  0.23200000000000004         -1.0525193345114749E-012
  0.23310000000000003         -8.6658857702037289E-012
  0.23420000000000002         -1.6105357903961725E-011
  0.23530000000000001         -2.1825495082180692E-011
  0.23640000000000000         -2.4323895291790151E-011
  0.23750000000000004         -2.2461521208545508E-011
  0.23860000000000003         -1.5769004380419218E-011
  0.23970000000000002         -4.6706571609389141E-012
  0.24080000000000001          9.4370769629976048E-012
  0.24190000000000000          2.4296072304217597E-011
  0.24300000000000005          3.7095961579193320E-011
  0.24410000000000004          4.4951372514800482E-011
  0.24520000000000003          4.5474419910012344E-011
  0.24630000000000002          3.7337652967440949E-011
  0.24740000000000001          2.0708335328290880E-011
  0.24850000000000005         -2.5555368749599751E-012
  0.24960000000000004         -2.9022592351595114E-011
  0.25070000000000003         -5.4138302639011346E-011
  0.25180000000000002         -7.2960538036655694E-011
  0.25290000000000001         -8.1067697954711810E-011
  0.25400000000000000         -7.5477654021634660E-011
  0.25510000000000005         -5.5395203900181306E-011
  0.25620000000000004         -2.2621408316037692E-011
  0.25730000000000003          1.8490330619211175E-011
  0.25840000000000002          6.1566823659979282E-011
  0.25950000000000001          9.9178073928647271E-011
  0.26060000000000005          1.2408393103684847E-010
  0.26170000000000004          1.3055273186026839E-010
  0.26280000000000003          1.1551287307874263E-010
  0.26390000000000002          7.9316640790749862E-011
  0.26500000000000001          2.5956541282365036E-011
  0.26610000000000000         -3.7333151600074574E-011
  0.26720000000000005         -1.0104967794727508E-010
  0.26830000000000004         -1.5482946038076948E-010
  0.26940000000000003         -1.8907368481561968E-010
  0.27050000000000002         -1.9653719143307557E-010
  0.27160000000000001         -1.7362977639121703E-010
  0.27270000000000005         -1.2122301064756014E-010
  0.27380000000000004         -4.4827368129755552E-011
  0.27490000000000003          4.5906665041302905E-011
  0.27600000000000002          1.3832027410140555E-010
  0.27710000000000001          2.1838551449511580E-010
  0.27820000000000000          2.7266128826407512E-010
  0.27930000000000005          2.9032874823637813E-010
  0.28040000000000004          2.6504254935219943E-010
  0.28150000000000003          1.9633181152282998E-010
  0.28260000000000002          9.0307642304420526E-011
  0.28370000000000001         -4.0511617518135428E-011
  0.28480000000000005         -1.7835646484241841E-010
  0.28590000000000004         -3.0231845445101578E-010
  0.28700000000000003         -3.9124269615469703E-010
  0.28810000000000002         -4.2706667540731426E-010
  0.28920000000000001         -3.9813352501514070E-010
  0.29030000000000000         -3.0192390863640447E-010
  0.29140000000000005         -1.4665094775335600E-010
  0.29250000000000004          4.8731278046863042E-011
  0.29360000000000003          2.5634510366200523E-010
  0.29470000000000002          4.4297723499413518E-010
  0.29580000000000001          5.7505078223488780E-010
  0.29690000000000005          6.2428668883494347E-010
  0.29800000000000004          5.7314283013756462E-010
  0.29910000000000003          4.1904574605773010E-010
  0.30020000000000002          1.7653375838181966E-010
  0.30130000000000001         -1.2329031175947048E-010
  0.30240000000000000         -4.3618406638717651E-010
  0.30350000000000005         -7.1076920735183029E-010
  0.30460000000000004         -8.9634277996354409E-010
  0.30570000000000003         -9.5135409988769502E-010
  0.30680000000000002         -8.5119963497112110E-010
  0.30790000000000001         -5.9399613498037293E-010
  0.30900000000000005         -2.0321742198056815E-010
  0.31010000000000004          2.7350252301174734E-010
  0.31120000000000003          7.6953879990689549E-010
  0.31230000000000002          1.2079379635488905E-009
  0.31340000000000001          1.5124983419140115E-009
  0.31450000000000006          1.6197180347427920E-009
  0.31560000000000005          1.4897844665499352E-009
  0.31670000000000004          1.1147715028350593E-009
  0.31780000000000003          5.2250590760200451E-010
  0.31890000000000002         -2.2485986865169796E-010
  0.32000000000000001         -1.0377184076595245E-009
  0.32110000000000005         -1.8105607451077526E-009
  0.32220000000000004         -2.4365732187526235E-009
  0.32330000000000003         -2.8229817951195461E-009
  0.32440000000000002         -2.9045562427979053E-009
  0.32550000000000001         -2.6528750751957954E-009
  0.32660000000000006         -2.0796340812702555E-009
  0.32770000000000005         -1.2333809357489217E-009
  0.32880000000000004         -1.9038449110984329E-010
  0.32990000000000003          9.5837368466503243E-010
  0.33100000000000002          2.1211579956917033E-009
  0.33210000000000001          3.2171152131999802E-009
  0.33320000000000005          4.1827168891781930E-009
  0.33430000000000004          4.9712667602146327E-009
  0.33540000000000003          5.5453871317676947E-009
  0.33650000000000002          5.8642600274845099E-009
  0.33760000000000001          5.8690166478282032E-009
  0.33870000000000006          5.4706922433308176E-009
  0.33980000000000005          4.5452657547338925E-009
  0.34090000000000004          2.9394484751971843E-009
  0.34200000000000003          4.8916225075110118E-010
  0.34310000000000002         -2.9495515386466203E-009
  0.34420000000000001         -7.4597222354557431E-009
  0.34530000000000005         -1.3017091371358206E-008
  0.34640000000000004         -1.9443526173299701E-008
  0.34750000000000003         -2.6365546353344976E-008
  0.34860000000000002         -3.3182231865239024E-008
  0.34970000000000001         -3.9045044397020301E-008
  0.35080000000000006         -4.2849805974235641E-008
  0.35190000000000005         -4.3238818402173476E-008
  0.35300000000000004         -3.8608917550312053E-008
  0.35410000000000003         -2.7119635346161799E-008
  0.35520000000000002         -6.6941909435101799E-009
  0.35630000000000001          2.4994926911551132E-008
  0.35740000000000005          7.0564475820285074E-008
  0.35850000000000004          1.3299221440714183E-007
  0.35960000000000003          2.1573057575484522E-007
  0.36070000000000002          3.2287031826683599E-007
  0.36180000000000001          4.5936083646436476E-007
  0.36290000000000006          6.3129213211826373E-007
  0.36400000000000005          8.4624034742079514E-007
  0.36510000000000004          1.1136772262846058E-006
  0.36620000000000003          1.4454422101904810E-006
  0.36730000000000002          1.8562749284666796E-006
  0.36840000000000006          2.3644078993425420E-006
  0.36950000000000005          2.9922219790367516E-006
  0.37060000000000004          3.7669749581832188E-006
  0.37170000000000003          4.7216151745847230E-006
  0.37280000000000002          5.8957032726832279E-006
  0.37390000000000001          7.3364730311433342E-006
  0.37500000000000006          9.1000555065093612E-006
  0.37610000000000005          1.1252899334002270E-005
  0.37720000000000004          1.3873412260328124E-005
  0.37830000000000003          1.7053847407667584E-005
  0.37940000000000002          2.0902443862024237E-005
  0.38050000000000006          2.5545818080376516E-005
  0.38160000000000005          3.1131637193763916E-005
  0.38270000000000004          3.7831529479182528E-005
  0.38380000000000003          4.5844234921236459E-005
  0.38490000000000002          5.5399034641438023E-005
  0.38600000000000001          6.6759363762153987E-005
  0.38710000000000000          8.0226686683790681E-005
  0.38819999999999999          9.6144533452281121E-005
  0.38930000000000009          1.1490274548991462E-004
  0.39040000000000008          1.3694183411568867E-004
  0.39150000000000007          1.6275742331139443E-004
  0.39260000000000006          1.9290475110716129E-004
  0.39370000000000005          2.2800299169237410E-004
  0.39480000000000004          2.6873947121910328E-004
  0.39590000000000003          3.1587345346435471E-004
  0.39700000000000002          3.7023972289691417E-004
  0.39810000000000001          4.3275122396376240E-004
  0.39920000000000000          5.0440110057485945E-004
  0.40029999999999999          5.8626362186861645E-004
  0.40140000000000009          6.7949401582330263E-004
  0.40250000000000008          7.8532652262976849E-004
  0.40360000000000007          9.0507126509308217E-004
  0.40470000000000006          1.0401088164686148E-003
  0.40580000000000005          1.1918827994288630E-003
  0.40690000000000004          1.3618901435183976E-003
  0.40800000000000003          1.5516686776286637E-003
  0.40910000000000002          1.7627817638042041E-003
  0.41020000000000001          1.9968006684893220E-003
  0.41130000000000000          2.2552834018055436E-003
  0.41239999999999999          2.5397505877460453E-003
  0.41350000000000009          2.8516585139079860E-003
  0.41460000000000008          3.1923689016576983E-003
  0.41570000000000007          3.5631156007329234E-003
  0.41680000000000006          3.9649676155951528E-003
  0.41790000000000005          4.3987919007651508E-003
  0.41900000000000004          4.8652103683660382E-003
  0.42010000000000003          5.3645597661333673E-003
  0.42120000000000002          5.8968458710117293E-003
  0.42230000000000001          6.4617028350030369E-003
  0.42340000000000000          7.0583465448488354E-003
  0.42449999999999999          7.6855351903871924E-003
  0.42560000000000009          8.3415276719323566E-003
  0.42670000000000008          9.0240486395968943E-003
  0.42780000000000007          9.7302572671842703E-003
  0.42890000000000006          1.0456721248159315E-002
  0.43000000000000005          1.1199396084329741E-002
  0.43110000000000004          1.1953614002971954E-002
  0.43220000000000003          1.2714083391410424E-002
  0.43330000000000002          1.3474895429488922E-002
  0.43440000000000001          1.4229540236608955E-002
  0.43550000000000000          1.4970936341962325E-002
  0.43659999999999999          1.5691475011204881E-002
  0.43770000000000009          1.6383072051332093E-002
  0.43880000000000008          1.7037238373555801E-002
  0.43990000000000007          1.7645153661758194E-002
  0.44100000000000006          1.8197765368653845E-002
  0.44210000000000005          1.8685884084144719E-002
  0.44320000000000004          1.9100304320635163E-002
  0.44430000000000003          1.9431920916275464E-002
  0.44540000000000002          1.9671866572919441E-002
  0.44650000000000001          1.9811647072402263E-002
  0.44760000000000000          1.9843282548681833E-002
  0.44869999999999999          1.9759446574522457E-002
  0.44980000000000009          1.9553606621295377E-002
  0.45090000000000008          1.9220166379747283E-002
  0.45200000000000007          1.8754591966356857E-002
  0.45310000000000006          1.8153537094668572E-002
  0.45420000000000005          1.7414945686392978E-002
  0.45530000000000004          1.6538160675345789E-002
  0.45640000000000003          1.5523987641132365E-002
  0.45750000000000002          1.4374763646024639E-002
  0.45860000000000001          1.3094388876075527E-002
  0.45970000000000000          1.1688341690384546E-002
  0.46079999999999999          1.0163671442915152E-002
  0.46190000000000009          8.5289607055239504E-003
  0.46300000000000008          6.7942697629887307E-003
  0.46410000000000007          4.9710482798602483E-003
  0.46520000000000006          3.0720267104699535E-003
  0.46630000000000005          1.1110849985096131E-003
  0.46740000000000004         -8.9690244896504807E-004
  0.46850000000000003         -2.9362387414806849E-003
  0.46960000000000002         -4.9905919440146702E-003
  0.47070000000000001         -7.0431976739420568E-003
  0.47180000000000000         -9.0770685582294008E-003
  0.47289999999999999         -1.1075216313691124E-002
  0.47400000000000009         -1.3020867863696791E-002
  0.47510000000000008         -1.4897689048945763E-002
  0.47620000000000007         -1.6689996510150247E-002
  0.47730000000000006         -1.8382965160897578E-002
  0.47840000000000005         -1.9962813886309022E-002