 -0.12000000000000000          0.0000000000000000     
 -0.11889999999999999          0.0000000000000000     
 -0.11780000000000000          0.0000000000000000     
 -0.11670000000000000          0.0000000000000000     
 -0.11559999999999999          0.0000000000000000     
 -0.11449999999999999          0.0000000000000000     
 -0.11340000000000000          0.0000000000000000     
 -0.11230000000000000          0.0000000000000000     
 -0.11119999999999999          0.0000000000000000     
 -0.11009999999999999          0.0000000000000000     
 -0.10900000000000000          0.0000000000000000     
 -0.10790000000000000          1.5416121886920681E-037
 -0.10679999999999999          3.4149265943666898E-034
 -0.10569999999999999          7.1231055790208722E-033
 -0.10460000000000000          7.5294123449968566E-032
 -0.10349999999999999          5.2532186497940066E-031
 -0.10239999999999999          2.6454533702176903E-030
 -0.10130000000000000          9.8095916207476746E-030
 -0.10020000000000000          2.5290021564306445E-029
  -9.9099999999999994E-002     3.0715784422783978E-029
  -9.7999999999999990E-002    -9.1652725595536126E-029
  -9.6899999999999986E-002    -7.2200815552097004E-028
  -9.5799999999999996E-002    -2.6234309591971921E-027
  -9.4699999999999993E-002    -6.4036809198987656E-027
  -9.3599999999999989E-002    -9.9459600739850905E-027
  -9.2499999999999999E-002    -2.4541806374701518E-027
  -9.1399999999999995E-002     4.2736972807748329E-026
  -9.0299999999999991E-002     1.6423791374543690E-025
  -8.9200000000000002E-002     3.7033383427926106E-025
  -8.8099999999999984E-002     5.2901765260354887E-025
  -8.6999999999999994E-002     2.0994336334314748E-025
  -8.5899999999999990E-002    -1.3639671987714154E-024
  -8.4799999999999986E-002    -4.9013917945561173E-024
  -8.3699999999999997E-002    -9.7547576744341476E-024
  -8.2599999999999993E-002    -1.1826308002499380E-023
  -8.1499999999999989E-002    -2.0895757917167864E-024
  -8.0399999999999999E-002     3.0920066813878746E-023
  -7.9299999999999995E-002     9.0471876393397950E-023
  -7.8199999999999992E-002     1.5208865082834192E-022
  -7.7100000000000002E-002     1.4457747018096158E-022
  -7.5999999999999984E-002    -4.3738480653563867E-023
  -7.4899999999999994E-002    -5.0032553817932475E-022
  -7.3799999999999991E-002    -1.1501838024533387E-021
  -7.2699999999999987E-002    -1.5914858486651178E-021
  -7.1599999999999997E-002    -1.0498703115108027E-021
  -7.0499999999999993E-002     1.3339032316150388E-021
  -6.9399999999999989E-002     5.7381662640273290E-021
  -6.8300000000000000E-002     1.0584013715522509E-020
  -6.7199999999999996E-002     1.1841538966083931E-020
  -6.6099999999999992E-002     3.8657106926975416E-021
  -6.5000000000000002E-002    -1.7245857767731791E-020
  -6.3899999999999985E-002    -4.8071904739965949E-020
  -6.2799999999999995E-002    -7.2774615789384304E-020
  -6.1699999999999991E-002    -6.3637801800359487E-020
  -6.0599999999999994E-002     7.4103418382216913E-021
  -5.9499999999999990E-002     1.4533966624567064E-019
  -5.8399999999999994E-002     3.0518174110311975E-019
  -5.7299999999999990E-002     3.8135611943795485E-019
  -5.6199999999999986E-002     2.3694354820214616E-019
  -5.5099999999999996E-002    -2.1543392824368960E-019
  -5.3999999999999992E-002    -9.0184362982442694E-019
  -5.2899999999999989E-002    -1.5077468463715245E-018
  -5.1799999999999985E-002    -1.5206960752693620E-018
  -5.0699999999999995E-002    -4.5967018493206378E-019
  -4.9599999999999991E-002     1.7401186848122135E-018
  -4.8499999999999988E-002     4.3627427048544906E-018
  -4.7399999999999998E-002     5.8590505983523252E-018
  -4.6299999999999994E-002     4.3734083380361710E-018
  -4.5199999999999990E-002    -1.1292055350567010E-018
  -4.4099999999999986E-002    -9.5493207436525363E-018
  -4.2999999999999997E-002    -1.6988728003662279E-017
  -4.1899999999999993E-002    -1.7657096093515362E-017
  -4.0799999999999989E-002    -6.7313017912690002E-018
  -3.9699999999999985E-002     1.5619593974471946E-017
  -3.8599999999999995E-002     4.1172584299435540E-017
  -3.7499999999999992E-002     5.4328312562453398E-017
  -3.6399999999999988E-002     3.8365702247166695E-017
  -3.5299999999999984E-002    -1.3696296111440043E-017
  -3.4199999999999994E-002    -8.8392409141762331E-017
  -3.3099999999999991E-002    -1.4871069406685259E-016
  -3.1999999999999987E-002    -1.4513619855899175E-016
  -3.0899999999999997E-002    -4.1483237586627732E-017
  -2.9799999999999993E-002     1.5341801088911766E-016
  -2.8699999999999989E-002     3.6588687435993407E-016
  -2.7599999999999986E-002     4.6879271387379345E-016
  -2.6499999999999996E-002     3.3340462746635046E-016
  -2.5399999999999992E-002    -9.0393230143239550E-017
  -2.4299999999999988E-002    -7.0167564525175252E-016
  -2.3199999999999985E-002    -1.2327209181315000E-015
  -2.2099999999999995E-002    -1.3268271092722733E-015
  -2.0999999999999991E-002    -7.0624672345467403E-016
  -1.9899999999999987E-002     6.2932190283265889E-016
  -1.8799999999999983E-002     2.2772849548109669E-015
  -1.7699999999999994E-002     3.4834287545798907E-015
  -1.6599999999999990E-002     3.4120713490544654E-015
  -1.5499999999999986E-002     1.5670989908332457E-015
  -1.4399999999999996E-002    -1.8155126350923453E-015
  -1.3299999999999992E-002    -5.6304476532931727E-015
  -1.2199999999999989E-002    -8.1811504611660870E-015
  -1.1099999999999985E-002    -7.8535578837861120E-015
  -9.9999999999999950E-003    -3.9412590279599385E-015
  -8.8999999999999913E-003     2.7747031010532454E-015
  -7.7999999999999875E-003     1.0059162578364640E-014
  -6.6999999999999837E-003     1.4991791970734561E-014
  -5.5999999999999939E-003     1.5216928837569552E-014
  -4.4999999999999901E-003     1.0097220951881021E-014
  -3.3999999999999864E-003     1.1326938013638600E-015
  -2.2999999999999826E-003    -8.6899957217154250E-015
  -1.1999999999999927E-003    -1.6377512218326462E-014
  -9.9999999999988987E-005    -2.0437786754631281E-014
   1.0000000000000148E-003    -2.1429784126589539E-014
   2.1000000000000185E-003    -2.0987076572337709E-014
   3.2000000000000084E-003    -1.9676996475131670E-014
   4.3000000000000121E-003    -1.5045883575557138E-014
   5.4000000000000159E-003    -1.6059260139290815E-015
   6.5000000000000058E-003     2.6144812694250956E-014
   7.6000000000000234E-003     6.8278049645489946E-014
   8.7000000000000133E-003     1.1420402162809553E-013
   9.8000000000000032E-003     1.4147187959145792E-013
   1.0900000000000021E-002     1.2167220773185382E-013
   1.2000000000000011E-002     3.3535205140982015E-014
   1.3100000000000001E-002    -1.2096337408481679E-013
   1.4200000000000018E-002    -3.0524583112230390E-013
   1.5300000000000008E-002    -4.4984729553677591E-013
   1.6400000000000026E-002    -4.7171887147212527E-013
   1.7500000000000016E-002    -3.0808093020398106E-013
   1.8600000000000005E-002     4.6688693968763806E-014
   1.9700000000000023E-002     5.1789870924128048E-013
   2.0800000000000013E-002     9.5631761781963784E-013
   2.1900000000000003E-002     1.1786471879145203E-012
   2.3000000000000020E-002     1.0338782773253748E-012
   2.4100000000000010E-002     4.7284172259461655E-013
   2.5200000000000000E-002    -4.0809830381173397E-013
   2.6300000000000018E-002    -1.3726617468581085E-012
   2.7400000000000008E-002    -2.1059637133363181E-012
   2.8500000000000025E-002    -2.3154255195294465E-012
   2.9600000000000015E-002    -1.8368169898121452E-012
   3.0700000000000005E-002    -7.0549496308198244E-013
   3.1800000000000023E-002     8.3598049935570256E-013
   3.2900000000000013E-002     2.3987752660255319E-012
   3.4000000000000002E-002     3.5557021056807944E-012
   3.5100000000000020E-002     3.9575651971242308E-012
   3.6200000000000010E-002     3.4197402059585493E-012
   3.7300000000000028E-002     1.9579800519363411E-012
   3.8400000000000017E-002    -2.2300876262236575E-013
   3.9500000000000007E-002    -2.7665206625123081E-012
   4.0600000000000025E-002    -5.2034982473298307E-012
   4.1700000000000015E-002    -6.9888361500087485E-012
   4.2800000000000005E-002    -7.5521958719575369E-012
   4.3900000000000022E-002    -6.3943828076639852E-012
   4.5000000000000012E-002    -3.2477492794865192E-012
   4.6100000000000002E-002     1.7213238555665450E-012
   4.7200000000000020E-002     7.7422288752849253E-012
   4.8300000000000010E-002     1.3411636807109763E-011
   4.9400000000000027E-002     1.6904258843438269E-011
   5.0500000000000017E-002     1.6448691703401392E-011
   5.1600000000000007E-002     1.0978318803113187E-011
   5.2700000000000025E-002     7.5123374249485981E-013
   5.3800000000000014E-002    -1.2325769810988618E-011
   5.4900000000000004E-002    -2.4891130905247350E-011
   5.6000000000000022E-002    -3.2909882808403822E-011
   5.7100000000000012E-002    -3.2891303946258094E-011
   5.8200000000000002E-002    -2.3184078104906683E-011
   5.9300000000000019E-002    -4.8869469034682218E-012
   6.0400000000000009E-002     1.8024293325121604E-011
   6.1500000000000027E-002     3.9522821910918067E-011
   6.2600000000000017E-002     5.3152209608330653E-011
   6.3700000000000007E-002     5.3979863844406076E-011
   6.4800000000000024E-002     4.0256740186402402E-011
   6.5900000000000014E-002     1.4213341491158081E-011
   6.7000000000000004E-002    -1.8312512148017239E-011
   6.8100000000000022E-002    -4.9337161148877670E-011
   6.9200000000000012E-002    -7.0843526343936636E-011
   7.0300000000000029E-002    -7.6904468471462597E-011
   7.1400000000000019E-002    -6.5203043220252875E-011
   7.2500000000000009E-002    -3.7566785924659535E-011
   7.3600000000000027E-002     5.3383484948558649E-013
   7.4700000000000016E-002     4.1273260657381356E-011
   7.5800000000000006E-002     7.6137208770173999E-011
   7.6900000000000024E-002     9.7572957460139120E-011
   7.8000000000000014E-002     1.0036113981394931E-010
   7.9100000000000004E-002     8.2595034770556100E-011
   8.0200000000000021E-002     4.6225843181423200E-011
   8.1300000000000011E-002    -2.8978152658923723E-012
   8.2400000000000029E-002    -5.5643760446461385E-011
   8.3500000000000019E-002    -1.0102144229790491E-010
   8.4600000000000009E-002    -1.2842529152172881E-010
   8.5700000000000026E-002    -1.3037947357213945E-010
   8.6800000000000016E-002    -1.0508139723453989E-010
   8.7900000000000006E-002    -5.7793856317808909E-011
   8.9000000000000024E-002    -2.2965938994220038E-013
   9.0100000000000013E-002     5.2401303992936496E-011
   9.1200000000000003E-002     8.6156055076562048E-011
   9.2300000000000021E-002     9.3518113606189690E-011
   9.3400000000000011E-002     7.7011660780328537E-011
   9.4500000000000028E-002     4.9495951191147454E-011
   9.5600000000000018E-002     3.0317559959788752E-011
   9.6700000000000008E-002     3.8001044628786493E-011
   9.7800000000000026E-002     8.1691644564383881E-011
   9.8900000000000016E-002     1.5449648488463867E-010
  0.10000000000000001          2.3171976752600273E-010
  0.10110000000000002          2.7563551278761944E-010
  0.10220000000000001          2.4625152477306799E-010
  0.10330000000000003          1.1522743520719135E-010
  0.10440000000000002         -1.2141108710378895E-010
  0.10550000000000001         -4.3622033704036404E-010
  0.10660000000000003         -7.7192583878362958E-010
  0.10770000000000002         -1.0519929095726344E-009
  0.10880000000000001         -1.1976327682804849E-009
  0.10990000000000003         -1.1465773913258718E-009
  0.11100000000000002         -8.6836742223867836E-010
  0.11210000000000001         -3.7206038454824535E-010
  0.11320000000000002          2.9526844340797506E-010
  0.11430000000000001          1.0579929432840463E-009
  0.11540000000000003          1.8258910366913616E-009
  0.11650000000000002          2.5082259657989645E-009
  0.11760000000000001          3.0242659886533265E-009
  0.11870000000000003          3.3083756477667935E-009
  0.11980000000000002          3.3100178189733381E-009
  0.12090000000000001          2.9907814345814112E-009
  0.12200000000000003          2.3213832453734145E-009
  0.12310000000000001          1.2814054010576615E-009
  0.12420000000000003         -1.3636427401014044E-010
  0.12530000000000002         -1.9162992007380369E-009
  0.12640000000000001         -4.0054404610787053E-009
  0.12750000000000003         -6.2956477416472989E-009
  0.12860000000000002         -8.6050680754352043E-009
  0.12970000000000001         -1.0663034358881037E-008
  0.13080000000000003         -1.2104065674536244E-008
  0.13190000000000002         -1.2477727612390137E-008
  0.13300000000000001         -1.1280872225985402E-008
  0.13410000000000000         -8.0163292517180098E-009
  0.13520000000000004         -2.2773576880338305E-009
  0.13630000000000003          6.1491707586943581E-009
  0.13740000000000002          1.7174131182401307E-008
  0.13850000000000001          3.0309083497251552E-008
  0.13960000000000000          4.4597221668253693E-008
  0.14070000000000005          5.8583043378382707E-008
  0.14180000000000004          7.0321405976705616E-008
  0.14290000000000003          7.7414898231855400E-008
  0.14400000000000002          7.7058563900877447E-008
  0.14510000000000001          6.6066002125444572E-008
  0.14620000000000000          4.0852620944845003E-008
  0.14730000000000004         -2.6407492587334579E-009
  0.14840000000000003         -6.9088933065298974E-008
  0.14950000000000002         -1.6398365921802604E-007
  0.15060000000000001         -2.9388335458995445E-007
  0.15170000000000000         -4.6670237117386065E-007
  0.15280000000000005         -6.9203776654100057E-007
  0.15390000000000004         -9.8154387337917817E-007
  0.15500000000000003         -1.3493794939494909E-006
  0.15610000000000002         -1.8127583133184832E-006
  0.15720000000000001         -2.3926401410769038E-006
  0.15830000000000000         -3.1145907839111821E-006
  0.15940000000000004         -4.0098338274229872E-006
  0.16050000000000003         -5.1165058689268317E-006
  0.16160000000000002         -6.4811211735963621E-006
  0.16270000000000001         -8.1602454319572078E-006
  0.16380000000000000         -1.0222386720037745E-005
  0.16490000000000005         -1.2750124273854509E-005
  0.16600000000000004         -1.5842495115511132E-005
  0.16710000000000003         -1.9617673360406173E-005
  0.16820000000000002         -2.4216009559422908E-005
  0.16930000000000001         -2.9803438717815493E-005
  0.17040000000000000         -3.6575334032464322E-005
  0.17150000000000004         -4.4760853644132824E-005
  0.17260000000000003         -5.4627803563797944E-005
  0.17370000000000002         -6.6488048848992117E-005
  0.17480000000000001         -8.0703482965295133E-005
  0.17590000000000000         -9.7692616443964992E-005
  0.17700000000000005         -1.1793766077403708E-004
  0.17810000000000004         -1.4199226669574287E-004
  0.17920000000000003         -1.7048964797128561E-004
  0.18030000000000002         -2.0415123383262421E-004
  0.18140000000000001         -2.4379569568790148E-004
  0.18250000000000000         -2.9034825566344214E-004
  0.18360000000000004         -3.4485008430411957E-004
  0.18470000000000003         -4.0846796874852311E-004
  0.18580000000000002         -4.8250348522605943E-004
  0.18690000000000001         -5.6840210998801107E-004
  0.18800000000000000         -6.6776200673393396E-004
  0.18910000000000005         -7.8234119031059192E-004
  0.19020000000000004         -9.1406402411795288E-004
  0.19130000000000003         -1.0650256367688632E-003
  0.19240000000000002         -1.2374949481367696E-003
  0.19350000000000001         -1.4339143120894713E-003
  0.19460000000000005         -1.6568963793894022E-003
  0.19570000000000004         -1.9092185537191255E-003
  0.19680000000000003         -2.1938117927934476E-003
  0.19790000000000002         -2.5137460045508361E-003
  0.19900000000000001         -2.8722108024377079E-003
  0.20010000000000000         -3.2724901351832295E-003
  0.20120000000000005         -3.7179312869601439E-003
  0.20230000000000004         -4.2119091210768263E-003
  0.20340000000000003         -4.7577816501859580E-003
  0.20450000000000002         -5.3588394557851238E-003
  0.20560000000000000         -6.0182492982644312E-003
  0.20670000000000005         -6.7389924503895773E-003
  0.20780000000000004         -7.5237907567016378E-003
  0.20890000000000003         -8.3750321612086568E-003
  0.21000000000000002         -9.2946873203029780E-003
  0.21110000000000001         -1.0284223660653543E-002
  0.21220000000000000         -1.1344512003458098E-002
  0.21330000000000005         -1.2475736130530907E-002
  0.21440000000000003         -1.3677292946756231E-002
  0.21550000000000002         -1.4947701944630763E-002
  0.21660000000000001         -1.6284513963976947E-002
  0.21770000000000000         -1.7684219243034427E-002
  0.21880000000000005         -1.9142164800049197E-002
  0.21990000000000004         -2.0652485596518617E-002
  0.22100000000000003         -2.2208035563620141E-002
  0.22210000000000002         -2.3800349759387600E-002
  0.22320000000000001         -2.5419603794687062E-002
  0.22430000000000000         -2.7054606268648390E-002
  0.22540000000000004         -2.8692800797335740E-002
  0.22650000000000003         -3.0320303858718728E-002
  0.22760000000000002         -3.1921957986898661E-002
  0.22870000000000001         -3.3481413786455458E-002
  0.22980000000000000         -3.4981238872657916E-002
  0.23090000000000005         -3.6403053507892844E-002
  0.23200000000000004         -3.7727702890574921E-002
  0.23310000000000003         -3.8935443704843892E-002
  0.23420000000000002         -4.0006172275923582E-002
  0.23530000000000001         -4.0919658083283961E-002
  0.23640000000000000         -4.1655817879138760E-002
  0.23750000000000004         -4.2194996782227240E-002
  0.23860000000000003         -4.2518269209274324E-002
  0.23970000000000002         -4.2607748988678536E-002
  0.24080000000000001         -4.2446903035095220E-002
  0.24190000000000000         -4.2020873196998862E-002
  0.24300000000000005         -4.1316770415246423E-002
  0.24410000000000004         -4.0323999444037764E-002
  0.24520000000000003         -3.9034522362137107E-002
  0.24630000000000002         -3.7443106862655312E-002
  0.24740000000000001         -3.5547576108947501E-002
  0.24850000000000005         -3.3348970930708516E-002
  0.24960000000000004         -3.0851717979652069E-002
  0.25070000000000003         -2.8063720802370146E-002
  0.25180000000000002         -2.4996417121807682E-002
  0.25290000000000001         -2.1664765041008609E-002
  0.25400000000000000         -1.8087191867152116E-002
  0.25510000000000005         -1.4285479764242499E-002
  0.25620000000000004         -1.0284587532846064E-002
  0.25730000000000003         -6.1124257393091273E-003
  0.25840000000000002         -1.7995741695347612E-003
  0.25950000000000001          2.6210536000412909E-003
  0.26060000000000005          7.1145883833821782E-003
  0.26170000000000004          1.1644623682979367E-002
  0.26280000000000003          1.6173669346614128E-002
  0.26390000000000002          2.0663625053053712E-002
  0.26500000000000001          2.5076275567159467E-002
  0.26610000000000000          2.9373792388588595E-002
  0.26720000000000005          3.3519241049812055E-002
  0.26830000000000004          3.7477066943622767E-002
  0.26940000000000003          4.1213570822635145E-002
  0.27050000000000002          4.4697367837900709E-002
  0.27160000000000001          4.7899795020070010E-002
  0.27270000000000005          5.0795285006305507E-002
  0.27380000000000004          5.3361700215981814E-002
  0.27490000000000003          5.5580594549588497E-002
  0.27600000000000002          5.7437411177642284E-002
  0.27710000000000001          5.8921637358502338E-002
  0.27820000000000000          6.0026895255139781E-002
  0.27930000000000005          6.0750942513569911E-002
  0.28040000000000004          6.1095638825092002E-002
  0.28150000000000003          6.1066836649292203E-002
  0.28260000000000002          6.0674224187251158E-002
  0.28370000000000001          5.9931090670863205E-002
  0.28480000000000005          5.8854062661576168E-002
  0.28590000000000004          5.7462790033907460E-002
  0.28700000000000003          5.5779580665231733E-002
  0.28810000000000002          5.3829043630972094E-002
  0.28920000000000001          5.1637668283168223E-002
  0.29030000000000000          4.9233425055599786E-002
  0.29140000000000005          4.6645341380367918E-002
  0.29250000000000004          4.3903076768480570E-002
  0.29360000000000003          4.1036522449835293E-002
  0.29470000000000002          3.8075402138416689E-002
  0.29580000000000001          3.5048890366312764E-002
  0.29690000000000005          3.1985289292409472E-002
  0.29800000000000004          2.8911700966076738E-002
  0.29910000000000003          2.5853753944768181E-002
  0.30020000000000002          2.2835374574285059E-002
  0.30130000000000001          1.9878579970905672E-002
  0.30240000000000000          1.7003329731657399E-002
  0.30350000000000005          1.4227395871704894E-002
  0.30460000000000004          1.1566289984033343E-002
  0.30570000000000003          9.0332256758578998E-003
  0.30680000000000002          6.6391168412011543E-003
  0.30790000000000001          4.3926171678187916E-003
  0.30900000000000005          2.3001850031651536E-003
  0.31010000000000004          3.6618000768601417E-004
  0.31120000000000003         -1.4070213405445646E-003
  0.31230000000000002         -3.0188904845713182E-003
  0.31340000000000001         -4.4705965444835506E-003
  0.31450000000000006         -5.7648451444831609E-003
  0.31560000000000005         -6.9057081224779601E-003
  0.31670000000000004         -7.8984497075812836E-003
  0.31780000000000003         -8.7493453464198238E-003
  0.31890000000000002         -9.4655104377637418E-003
  0.32000000000000001         -1.0054724722913255E-002
  0.32110000000000005         -1.0525268026855120E-002
  0.32220000000000004         -1.0885769722880219E-002
  0.32330000000000003         -1.1145063358710454E-002
  0.32440000000000002         -1.1312061908029990E-002
  0.32550000000000001         -1.1395641301210097E-002
  0.32660000000000006         -1.1404533330894548E-002
  0.32770000000000005         -1.1347241100323964E-002
  0.32880000000000004         -1.1231954744795634E-002
  0.32990000000000003         -1.1066488130804249E-002
  0.33100000000000002         -1.0858226573713705E-002
  0.33210000000000001         -1.0614086962620626E-002
  0.33320000000000005         -1.0340492434955093E-002
  0.33430000000000004         -1.0043359198312044E-002
  0.33540000000000003         -9.7280869924947933E-003
  0.33650000000000002         -9.3995643934274686E-003
  0.33760000000000001         -9.0621737613190076E-003
  0.33870000000000006         -8.7198010228473587E-003
  0.33980000000000005         -8.3758543137464614E-003
  0.34090000000000004         -8.0332823341403223E-003
  0.34200000000000003         -7.6946013348804746E-003
  0.34310000000000002         -7.3619281349405000E-003
  0.34420000000000001         -7.0370104544289413E-003
  0.34530000000000005         -6.7212616393770982E-003
  0.34640000000000004         -6.4157937085231789E-003
  0.34750000000000003         -6.1214469419249087E-003
  0.34860000000000002         -5.8388183664803738E-003
  0.34970000000000001         -5.5682902785323023E-003
  0.35080000000000006         -5.3100569808635862E-003
  0.35190000000000005         -5.0641505158473847E-003
  0.35300000000000004         -4.8304693074036620E-003
  0.35410000000000003         -4.6088042609691250E-003
  0.35520000000000002         -4.3988598902000671E-003
  0.35630000000000001         -4.2002751719618639E-003
  0.35740000000000005         -4.0126406368189557E-003
  0.35850000000000004         -3.8355105106593970E-003
  0.35960000000000003         -3.6684180435381259E-003
  0.36070000000000002         -3.5108835369919295E-003
  0.36180000000000001         -3.3624253884925923E-003
  0.36290000000000006         -3.2225690082253403E-003
  0.36400000000000005         -3.0908536952168044E-003
  0.36510000000000004         -2.9668384276872982E-003
  0.36620000000000003         -2.8501042936880530E-003
  0.36730000000000002         -2.7402571049447199E-003
  0.36840000000000006         -2.6369278968067424E-003
  0.36950000000000005         -2.5397720991940354E-003
  0.37060000000000004         -2.4484698450285749E-003
  0.37170000000000003         -2.3627256767434174E-003
  0.37280000000000002         -2.2822701507140934E-003
  0.37390000000000001         -2.2068583606012684E-003
  0.37500000000000006         -2.1362708358807778E-003
  0.37610000000000005         -2.0703120220062535E-003
  0.37720000000000004         -2.0088079233012640E-003
  0.37830000000000003         -1.9516039351165229E-003
  0.37940000000000002         -1.8985623324124651E-003
  0.38050000000000006         -1.8495626426600349E-003
  0.38160000000000005         -1.8045034828179072E-003
  0.38270000000000004         -1.7633065784616580E-003
  0.38380000000000003         -1.7259212143657110E-003
  0.38490000000000002         -1.6923285290299274E-003
  0.38600000000000001         -1.6625437486393264E-003
  0.38710000000000000         -1.6366168924564582E-003
  0.38819999999999999         -1.6146314688090925E-003
  0.38930000000000009         -1.5967044558690157E-003
  0.39040000000000008         -1.5829863456438093E-003
  0.39150000000000007         -1.5736635151780028E-003
  0.39260000000000006         -1.5689602627330793E-003
  0.39370000000000005         -1.5691401295171211E-003
  0.39480000000000004         -1.5745053701403389E-003
  0.39590000000000003         -1.5853926274842563E-003
  0.39700000000000002         -1.6021667536757008E-003
  0.39810000000000001         -1.6252125760662138E-003
  0.39920000000000000         -1.6549262400234192E-003
  0.40029999999999999         -1.6917057103353250E-003
  0.40140000000000009         -1.7359404098144442E-003
  0.40250000000000008         -1.7879991082537972E-003
  0.40360000000000007         -1.8482157864809310E-003
  0.40470000000000006         -1.9168720405141142E-003
  0.40580000000000005         -1.9941792565467218E-003
  0.40690000000000004         -2.0802592948805463E-003
  0.40800000000000003         -2.1751251657500508E-003
  0.40910000000000002         -2.2786637322176981E-003
  0.41020000000000001         -2.3906191031049257E-003
  0.41130000000000000         -2.5105741862269772E-003
  0.41239999999999999         -2.6379355000307526E-003
  0.41350000000000009         -2.7719165016231381E-003
  0.41460000000000008         -2.9115240177841465E-003
  0.41570000000000007         -3.0555470003836801E-003
  0.41680000000000006         -3.2025493566598391E-003
  0.41790000000000005         -3.3508671290016774E-003
  0.41900000000000004         -3.4986078950754646E-003
  0.42010000000000003         -3.6436569478088127E-003
  0.42120000000000002         -3.7836857022177928E-003
  0.42230000000000001         -3.9161638640886837E-003
  0.42340000000000000         -4.0383789361644398E-003
  0.42449999999999999         -4.1474596862142339E-003
  0.42560000000000009         -4.2404040668050542E-003
  0.42670000000000008         -4.3141121488755665E-003
  0.42780000000000007         -4.3654258227879732E-003
  0.42890000000000006         -4.3911674023979210E-003
  0.43000000000000005         -4.3881859666630857E-003
  0.43110000000000004         -4.3534028462974359E-003
  0.43220000000000003         -4.2838630128929382E-003
  0.43330000000000002         -4.1767842630362692E-003
  0.43440000000000001         -4.0296103466636764E-003
  0.43550000000000000         -3.8400644697614500E-003
  0.43659999999999999         -3.6061988598033671E-003
  0.43770000000000009         -3.3264433780823589E-003
  0.43880000000000008         -2.9996526698511548E-003
  0.43990000000000007         -2.6251467743225263E-003
  0.44100000000000006         -2.2027483203529681E-003
  0.44210000000000005         -1.7328136068962188E-003
  0.44320000000000004         -1.2162566472527342E-003
  0.44430000000000003         -6.5456477853305644E-004
  0.44540000000000002         -4.9808178172934666E-005
  0.44650000000000001          5.9536214671302866E-004
  0.44760000000000000          1.2777217258313264E-003
  0.44869999999999999          1.9934894778382071E-003
  0.44980000000000009          2.7383531317447087E-003
  0.45090000000000008          3.5075035701818092E-003
  0.45200000000000007          4.2956762185407055E-003
  0.45310000000000006          5.0972021364521893E-003
  0.45420000000000005          5.9060684297828937E-003
  0.45530000000000004          6.7159842397623449E-003
  0.45640000000000003          7.5204526068371885E-003
  0.45750000000000002          8.3128436395002829E-003
  0.45860000000000001          9.0864744704359322E-003
  0.45970000000000000          9.8346897054281505E-003
  0.46079999999999999          1.0550942518094969E-002
  0.46190000000000009          1.1228878184337205E-002
  0.46300000000000008          1.1862420667216199E-002
  0.46410000000000007          1.2445846498347596E-002
  0.46520000000000006          1.2973860797862955E-002
  0.46630000000000005          1.3441661972084356E-002
  0.46740000000000004          1.3845000828782154E-002
  0.46850000000000003          1.4180230421608956E-002
  0.46960000000000002          1.4444353338763170E-002
  0.47070000000000001          1.4635059910068998E-002
  0.47180000000000000          1.4750755773911800E-002
  0.47289999999999999          1.4790587039175351E-002
  0.47400000000000009          1.4754446097578200E-002
  0.47510000000000008          1.4642965771238785E-002
  0.47620000000000007          1.4457502334979444E-002
  0.47730000000000006          1.4200112607704273E-002
  0.47840000000000005          1.3873517412466868E-002