 -0.12000000000000000          0.0000000000000000     
 -0.11889999999999999          0.0000000000000000     
 -0.11780000000000000          0.0000000000000000     
 -0.11670000000000000          0.0000000000000000     
 -0.11559999999999999          0.0000000000000000     
 -0.11449999999999999          0.0000000000000000     
 -0.11340000000000000          0.0000000000000000     
 -0.11230000000000000          0.0000000000000000     
 -0.11119999999999999          0.0000000000000000     
 -0.11009999999999999          0.0000000000000000     
 -0.10900000000000000          0.0000000000000000     
 -0.10790000000000000          0.0000000000000000     
 -0.10679999999999999          0.0000000000000000     
 -0.10569999999999999          0.0000000000000000     
 -0.10460000000000000          0.0000000000000000     
 -0.10349999999999999          0.0000000000000000     
 -0.10239999999999999          0.0000000000000000     
 -0.10130000000000000          0.0000000000000000     
 -0.10020000000000000          0.0000000000000000     
  -9.9099999999999994E-002     0.0000000000000000     
  -9.7999999999999990E-002     0.0000000000000000     
  -9.6899999999999986E-002     0.0000000000000000     
  -9.5799999999999996E-002     0.0000000000000000     
  -9.4699999999999993E-002     0.0000000000000000     
  -9.3599999999999989E-002     0.0000000000000000     
  -9.2499999999999999E-002     0.0000000000000000     
  -9.1399999999999995E-002     0.0000000000000000     
  -9.0299999999999991E-002     0.0000000000000000     
  -8.9200000000000002E-002     0.0000000000000000     
  -8.8099999999999984E-002     0.0000000000000000     
  -8.6999999999999994E-002     0.0000000000000000     
  -8.5899999999999990E-002     0.0000000000000000     
  -8.4799999999999986E-002     0.0000000000000000     
  -8.3699999999999997E-002     0.0000000000000000     
  -8.2599999999999993E-002     0.0000000000000000     
  -8.1499999999999989E-002     0.0000000000000000     
  -8.0399999999999999E-002     0.0000000000000000     
  -7.9299999999999995E-002     0.0000000000000000     
  -7.8199999999999992E-002     0.0000000000000000     
  -7.7100000000000002E-002     0.0000000000000000     
  -7.5999999999999984E-002     0.0000000000000000     
  -7.4899999999999994E-002     0.0000000000000000     
  -7.3799999999999991E-002     0.0000000000000000     
  -7.2699999999999987E-002     0.0000000000000000     
  -7.1599999999999997E-002     0.0000000000000000     
  -7.0499999999999993E-002     0.0000000000000000     
  -6.9399999999999989E-002     0.0000000000000000     
  -6.8300000000000000E-002     0.0000000000000000     
  -6.7199999999999996E-002     0.0000000000000000     
  -6.6099999999999992E-002     0.0000000000000000     
  -6.5000000000000002E-002     0.0000000000000000     
  -6.3899999999999985E-002     0.0000000000000000     
  -6.2799999999999995E-002     0.0000000000000000     
  -6.1699999999999991E-002     0.0000000000000000     
  -6.0599999999999994E-002     0.0000000000000000     
  -5.9499999999999990E-002     0.0000000000000000     
  -5.8399999999999994E-002     0.0000000000000000     
  -5.7299999999999990E-002     0.0000000000000000     
  -5.6199999999999986E-002     0.0000000000000000     
  -5.5099999999999996E-002     0.0000000000000000     
  -5.3999999999999992E-002     0.0000000000000000     
  -5.2899999999999989E-002     0.0000000000000000     
  -5.1799999999999985E-002     0.0000000000000000     
  -5.0699999999999995E-002     0.0000000000000000     
  -4.9599999999999991E-002     0.0000000000000000     
  -4.8499999999999988E-002     0.0000000000000000     
  -4.7399999999999998E-002     0.0000000000000000     
  -4.6299999999999994E-002     0.0000000000000000     
  -4.5199999999999990E-002     0.0000000000000000     
  -4.4099999999999986E-002     0.0000000000000000     
  -4.2999999999999997E-002     0.0000000000000000     
  -4.1899999999999993E-002     0.0000000000000000     
  -4.0799999999999989E-002     0.0000000000000000     
  -3.9699999999999985E-002     0.0000000000000000     
  -3.8599999999999995E-002     0.0000000000000000     
  -3.7499999999999992E-002     0.0000000000000000     
  -3.6399999999999988E-002     0.0000000000000000     
  -3.5299999999999984E-002     0.0000000000000000     
  -3.4199999999999994E-002     0.0000000000000000     
  -3.3099999999999991E-002     0.0000000000000000     
  -3.1999999999999987E-002     0.0000000000000000     
  -3.0899999999999997E-002     0.0000000000000000     
  -2.9799999999999993E-002     0.0000000000000000     
  -2.8699999999999989E-002     0.0000000000000000     
  -2.7599999999999986E-002     0.0000000000000000     
  -2.6499999999999996E-002     0.0000000000000000     
  -2.5399999999999992E-002     0.0000000000000000     
  -2.4299999999999988E-002     0.0000000000000000     
  -2.3199999999999985E-002     0.0000000000000000     
  -2.2099999999999995E-002     0.0000000000000000     
  -2.0999999999999991E-002     0.0000000000000000     
  -1.9899999999999987E-002     0.0000000000000000     
  -1.8799999999999983E-002     0.0000000000000000     
  -1.7699999999999994E-002     0.0000000000000000     
  -1.6599999999999990E-002     0.0000000000000000     
  -1.5499999999999986E-002     0.0000000000000000     
  -1.4399999999999996E-002     0.0000000000000000     
  -1.3299999999999992E-002     0.0000000000000000     
  -1.2199999999999989E-002     0.0000000000000000     
  -1.1099999999999985E-002     0.0000000000000000     
  -9.9999999999999950E-003     0.0000000000000000     
  -8.8999999999999913E-003     0.0000000000000000     
  -7.7999999999999875E-003     0.0000000000000000     
  -6.6999999999999837E-003     0.0000000000000000     
  -5.5999999999999939E-003     0.0000000000000000     
  -4.4999999999999901E-003     0.0000000000000000     
  -3.3999999999999864E-003     0.0000000000000000     
  -2.2999999999999826E-003     0.0000000000000000     
  -1.1999999999999927E-003     0.0000000000000000     
  -9.9999999999988987E-005     0.0000000000000000     
   1.0000000000000148E-003     0.0000000000000000     
   2.1000000000000185E-003     0.0000000000000000     
   3.2000000000000084E-003     0.0000000000000000     
   4.3000000000000121E-003     0.0000000000000000     
   5.4000000000000159E-003     0.0000000000000000     
   6.5000000000000058E-003     0.0000000000000000     
   7.6000000000000234E-003     0.0000000000000000     
   8.7000000000000133E-003     0.0000000000000000     
   9.8000000000000032E-003     0.0000000000000000     
   1.0900000000000021E-002     0.0000000000000000     
   1.2000000000000011E-002     0.0000000000000000     
   1.3100000000000001E-002     0.0000000000000000     
   1.4200000000000018E-002     0.0000000000000000     
   1.5300000000000008E-002     0.0000000000000000     
   1.6400000000000026E-002     0.0000000000000000     
   1.7500000000000016E-002     0.0000000000000000     
   1.8600000000000005E-002     0.0000000000000000     
   1.9700000000000023E-002     0.0000000000000000     
   2.0800000000000013E-002     0.0000000000000000     
   2.1900000000000003E-002     0.0000000000000000     
   2.3000000000000020E-002     0.0000000000000000     
   2.4100000000000010E-002     0.0000000000000000     
   2.5200000000000000E-002     0.0000000000000000     
   2.6300000000000018E-002     0.0000000000000000     
   2.7400000000000008E-002     0.0000000000000000     
   2.8500000000000025E-002     0.0000000000000000     
   2.9600000000000015E-002     0.0000000000000000     
   3.0700000000000005E-002     0.0000000000000000     
   3.1800000000000023E-002     0.0000000000000000     
   3.2900000000000013E-002     0.0000000000000000     
   3.4000000000000002E-002     0.0000000000000000     
   3.5100000000000020E-002     0.0000000000000000     
   3.6200000000000010E-002     0.0000000000000000     
   3.7300000000000028E-002     0.0000000000000000     
   3.8400000000000017E-002     0.0000000000000000     
   3.9500000000000007E-002     0.0000000000000000     
   4.0600000000000025E-002     0.0000000000000000     
   4.1700000000000015E-002     0.0000000000000000     
   4.2800000000000005E-002     0.0000000000000000     
   4.3900000000000022E-002     0.0000000000000000     
   4.5000000000000012E-002     0.0000000000000000     
   4.6100000000000002E-002     0.0000000000000000     
   4.7200000000000020E-002     0.0000000000000000     
   4.8300000000000010E-002     0.0000000000000000     
   4.9400000000000027E-002    -3.9693481243960003E-051
   5.0500000000000017E-002    -8.0694218662810489E-047
   5.1600000000000007E-002    -1.6137652928124779E-046
   5.2700000000000025E-002    -2.4206810275194575E-046
   5.3800000000000014E-002    -1.8995902253391573E-049
   5.4900000000000004E-002     4.0312762730746442E-046
   5.6000000000000022E-002     7.2605729899887430E-046
   5.7100000000000012E-002     4.0484437143210560E-046
   5.8200000000000002E-002    -3.3976126229141336E-045
   5.9300000000000019E-002    -5.9842556274126571E-045
   6.0400000000000009E-002    -6.6332086504173993E-045
   6.1500000000000027E-002    -2.6772357629122868E-045
   6.2600000000000017E-002     7.6045368288299651E-045
   6.3700000000000007E-002     1.5210253307038919E-044
   6.4800000000000024E-002     1.3440556220849158E-044
   6.5900000000000014E-002    -7.3959473159244773E-045
   6.7000000000000004E-002    -4.0251345006112933E-044
   6.8100000000000022E-002    -6.3699740772418998E-044
   6.9200000000000012E-002    -4.6322643166994079E-044
   7.0300000000000029E-002     3.9764416714074153E-044
   7.1400000000000019E-002     1.7905756988489607E-043
   7.2500000000000009E-002     2.9790022488331890E-043
   7.3600000000000027E-002     2.6906112782394712E-043
   7.4700000000000016E-002    -4.7538553341073459E-044
   7.5800000000000006E-002    -6.8241971895063708E-043
   7.6900000000000024E-002    -1.4208334295240278E-042
   7.8000000000000014E-002    -1.7175019930433403E-042
   7.9100000000000004E-002    -8.2493634328246505E-043
   8.0200000000000021E-002     1.7805822516325278E-042
   8.1300000000000011E-002     5.7017663633920562E-042
   8.2400000000000029E-002     8.9608759232282683E-042
   8.3500000000000019E-002     8.0497080155026553E-042
   8.4600000000000009E-002    -6.8542384968415551E-043
   8.5700000000000026E-002    -1.8097866314138390E-041
   8.6800000000000016E-002    -3.8647622922492201E-041
   8.7900000000000006E-002    -4.8514502859885294E-041
   8.9000000000000024E-002    -2.8668840044602436E-041
   9.0100000000000013E-002     3.4716297221443360E-041
   9.1200000000000003E-002     1.3388276215365870E-040
   9.2300000000000021E-002     2.2463507575406030E-040
   9.3400000000000011E-002     2.2644393864961132E-040
   9.4500000000000028E-002     5.1644227447246760E-041
   9.5600000000000018E-002    -3.3219060461952134E-040
   9.6700000000000008E-002    -8.2498917014835558E-040
   9.7800000000000026E-002    -1.1488148712157286E-039
   9.8900000000000016E-002    -8.9868012359204494E-040
  0.10000000000000001          2.6298790543824157E-040
  0.10110000000000002          2.2889889012850827E-039
  0.10220000000000001          4.4400614130636904E-039
  0.10330000000000003          5.2286551323676053E-039
  0.10440000000000002          2.8730882951725731E-039
  0.10550000000000001         -3.6394728269218559E-039
  0.10660000000000003         -1.3152601554032402E-038
  0.10770000000000002         -2.1350184970483143E-038
  0.10880000000000001         -2.1240197747942617E-038
  0.10990000000000003         -5.9719670621235598E-039
  0.11100000000000002          2.6149994665505876E-038
  0.11210000000000001          6.6285397418956370E-038
  0.11320000000000002          9.2854650781120003E-038
  0.11430000000000001          7.6576146298546122E-038
  0.11540000000000003         -5.1600241746184479E-039
  0.11650000000000002         -1.4744487684788761E-037
  0.11760000000000001         -3.0010051437781690E-037
  0.11870000000000003         -3.6765040010920261E-037
  0.11980000000000002         -2.4027373909480406E-037
  0.12090000000000001          1.4252398746900800E-037
  0.12200000000000003          7.1491017447352273E-037
  0.12310000000000001          1.2368532471539984E-036
  0.12420000000000003          1.3284745729985220E-036
  0.12530000000000002          6.2191879919263338E-037
  0.12640000000000001         -9.8796460186722760E-037
  0.12750000000000003         -3.0916428244995808E-036
  0.12860000000000002         -4.6768460651060603E-036
  0.12970000000000001         -4.3736122184549002E-036
  0.13080000000000003         -1.0964972222948578E-036
  0.13190000000000002          5.0689012787927024E-036
  0.13300000000000001          1.2147331770771178E-035
  0.13410000000000000          1.6294955299056728E-035
  0.13520000000000004          1.3023445871274554E-035
  0.13630000000000003         -3.8585270149351962E-037
  0.13740000000000002         -2.2058807803690064E-035
  0.13850000000000001         -4.3824971783258893E-035
  0.13960000000000000         -5.2397507350486237E-035
  0.14070000000000005         -3.4460705678580306E-035
  0.14180000000000004          1.5144482878385367E-035
  0.14290000000000003          8.5368552324465340E-035
  0.14400000000000002          1.4609838564493866E-034
  0.14510000000000001          1.5530743020660437E-034
  0.14620000000000000          7.7626423958362608E-035
  0.14730000000000004         -9.0469987727575732E-035
  0.14840000000000003         -3.0045727475425259E-034
  0.14950000000000002         -4.5161568550217158E-034
  0.15060000000000001         -4.2220667804044860E-034
  0.15170000000000000         -1.3042502716494512E-034
  0.15280000000000005          3.9528699911560773E-034
  0.15390000000000004          9.7366413363413715E-034
  0.15500000000000003          1.2960669773277864E-033
  0.15610000000000002          1.0408132305800372E-033
  0.15720000000000001          5.5066035868593241E-035
  0.15830000000000000         -1.4684046318448575E-033
  0.15940000000000004         -2.9266600699868540E-033
  0.16050000000000003         -3.4494104475195610E-033
  0.16160000000000002         -2.2698927803928808E-033
  0.16270000000000001          7.7963590964241814E-034
  0.16380000000000000          4.8758319241086796E-033
  0.16490000000000005          8.1950526180591785E-033
  0.16600000000000004          8.4784254923539441E-033
  0.16710000000000003          4.1196877640534222E-033
  0.16820000000000002         -4.6048858175963698E-033
  0.16930000000000001         -1.4808224787508033E-032
  0.17040000000000000         -2.1421251811713783E-032
  0.17150000000000004         -1.9069899953075007E-032
  0.17260000000000003         -4.9897431120665583E-033
  0.17370000000000002          1.8218354367124712E-032
  0.17480000000000001          4.1640427692690091E-032
  0.17590000000000000          5.2263576919296469E-032
  0.17700000000000005          3.8500421928039177E-032
  0.17810000000000004         -2.6543229812151875E-033
  0.17920000000000003         -6.0182321439176628E-032
  0.18030000000000002         -1.0914592638792936E-031
  0.18140000000000001         -1.1867548299667770E-031
  0.18250000000000000         -6.6709377558001200E-032
  0.18360000000000004          4.3947370407685513E-032
  0.18470000000000003          1.7672280734997519E-031
  0.18580000000000002          2.6753213288592871E-031
  0.18690000000000001          2.4898238323709761E-031
  0.18800000000000000          8.6394651235630630E-032
  0.18910000000000005         -1.8962877311218342E-031
  0.19020000000000004         -4.7364685460282956E-031
  0.19130000000000003         -6.1343096965516793E-031
  0.19240000000000002         -4.7510919014315551E-031
  0.19350000000000001         -2.4042042385037450E-032
  0.19460000000000005          6.1710294351315438E-031
  0.19570000000000004          1.1740723775271924E-030
  0.19680000000000003          1.3121863979054420E-030
  0.19790000000000002          7.9574794688290333E-031
  0.19900000000000001         -3.4570044538978284E-031
  0.20010000000000000         -1.7328075328438124E-030
  0.20120000000000005         -2.7106399303472021E-030
  0.20230000000000004         -2.6006603846119662E-030
  0.20340000000000003         -1.0591901990631192E-030
  0.20450000000000002          1.6134456282067749E-030
  0.20560000000000000          4.3991750853063575E-030
  0.20670000000000005          5.8495950699497166E-030
  0.20780000000000004          4.7095293125676648E-030
  0.20890000000000003          6.6035291866063880E-031
  0.21000000000000002         -5.1754312727053141E-030
  0.21110000000000001         -1.0324918156047926E-029
  0.21220000000000000         -1.1811673515666207E-029
  0.21330000000000005         -7.5684538288104061E-030
  0.21440000000000003          2.1450291086629401E-030
  0.21550000000000002          1.4076518592886028E-029
  0.21660000000000001          2.2681662531635901E-029
  0.21770000000000000          2.2282771405712951E-029
  0.21880000000000005          1.0030608331075763E-029
  0.21990000000000004         -1.1634751628134332E-029
  0.22100000000000003         -3.4497401581513566E-029
  0.22210000000000002         -4.6967864603920326E-029
  0.22320000000000001         -3.9059206662960788E-029
  0.22430000000000000         -8.1570325262939870E-030
  0.22540000000000004          3.7195736102860699E-029
  0.22650000000000003          7.8132076136194519E-029
  0.22760000000000002          9.1962939633454489E-029
  0.22870000000000001          6.2759722150058305E-029
  0.22980000000000000         -8.2125811658431206E-030
  0.23090000000000005         -9.7696441574826652E-029
  0.23200000000000004         -1.6554034880088207E-028
  0.23310000000000003         -1.7013220646086981E-028
  0.23420000000000002         -8.9371616070432921E-029
  0.23530000000000001          6.1956867321767323E-029
  0.23640000000000000          2.2846807226389765E-028
  0.23750000000000004          3.3016867417247708E-028
  0.23860000000000003          2.9587138612277479E-028
  0.23970000000000002          1.0210545637418916E-028
  0.24080000000000001         -2.0075526070374891E-028
  0.24190000000000000         -4.9225491856146556E-028
  0.24300000000000005         -6.2233724831176036E-028
  0.24410000000000004         -4.7862250617807305E-028
  0.24520000000000003         -5.4050998388463731E-029
  0.24630000000000002          5.1928944372103547E-028
  0.24740000000000001          9.9690408960863603E-028
  0.24850000000000005          1.1128440165746601E-027
  0.24960000000000004          7.0708472402464595E-028
  0.25070000000000003         -1.6458620829775245E-028
  0.25180000000000002         -1.1982383734665272E-027
  0.25290000000000001         -1.9246675042994218E-027
  0.25400000000000000         -1.8976387254400537E-027
  0.25510000000000005         -9.2224842074594415E-028
  0.25620000000000004          7.7955307779255328E-028
  0.25730000000000003          2.5655963566592272E-027
  0.25840000000000002          3.5774648887042819E-027
  0.25950000000000001          3.1060353887887564E-027
  0.26060000000000005          9.8068746367417244E-028
  0.26170000000000004         -2.2035795579411888E-027
  0.26280000000000003         -5.1753042032103541E-027
  0.26390000000000002         -6.4304139268762716E-027
  0.26500000000000001         -4.9048711985119471E-027
  0.26610000000000000         -6.0601133141992435E-028
  0.26720000000000005          5.1157405477445950E-027
  0.26830000000000004          9.8776990975698939E-027
  0.26940000000000003          1.1153351240317480E-026
  0.27050000000000002          7.4517381397053313E-027
  0.27160000000000001         -7.1022321151730703E-028
  0.27270000000000005         -1.0561770266104146E-026
  0.27380000000000004         -1.7853041424134167E-026
  0.27490000000000003         -1.8523993122918014E-026
  0.27600000000000002         -1.0681003457733088E-026
  0.27710000000000001          3.9915033049282919E-027
  0.27820000000000000          2.0191075896034399E-026
  0.27930000000000005          3.0667409435808997E-026
  0.28040000000000004          2.9202895539940186E-026
  0.28150000000000003          1.3787309170478164E-026
  0.28260000000000002         -1.1476634729767549E-026
  0.28370000000000001         -3.6928387129228270E-026
  0.28480000000000005         -5.0657098319314820E-026
  0.28590000000000004         -4.3613733370116035E-026
  0.28700000000000003         -1.4514365286949033E-026
  0.28810000000000002          2.7826568559197082E-026
  0.28920000000000001          6.6401628622665071E-026
  0.29030000000000000          8.2191278912508640E-026
  0.29140000000000005          6.2652981145472614E-026
  0.29250000000000004          9.0386799052712730E-027
  0.29360000000000003         -6.1142387652800438E-026
  0.29470000000000002         -1.1871948435510860E-025
  0.29580000000000001         -1.3389288321941540E-025
  0.29690000000000005         -8.9949035650130488E-026
  0.29800000000000004          6.1378325153343488E-027
  0.29910000000000003          1.2178662649230288E-025
  0.30020000000000002          2.0828464018316494E-025
  0.30130000000000001          2.1966936043528467E-025
  0.30240000000000000          1.3428865133599004E-025
  0.30350000000000005         -3.0285720497791277E-026
  0.30460000000000004         -2.1714725819841527E-025
  0.30570000000000003         -3.4775745158052680E-025
  0.30680000000000002         -3.5293782195476948E-025
  0.30790000000000001         -2.0569360452155347E-025
  0.30900000000000005          5.8629562034572102E-026
  0.31010000000000004          3.4636897547385719E-025
  0.31120000000000003          5.3646996943703002E-025
  0.31230000000000002          5.2935916242106224E-025
  0.31340000000000001          2.9503702319757791E-025
  0.31450000000000006         -1.0141448507693835E-025
  0.31560000000000005         -5.1245544417140628E-025
  0.31670000000000004         -7.5994448276098184E-025
  0.31780000000000003         -7.0977704311677021E-025
  0.31890000000000002         -3.3960513006939538E-025
  0.32000000000000001          2.3221566896036887E-025
  0.32110000000000005          7.7640256715175629E-025
  0.32220000000000004          1.0381250704067203E-024
  0.32330000000000003          8.4909808271383226E-025
  0.32440000000000002          2.2023575718871198E-025
  0.32550000000000001         -6.3074390544333763E-025
  0.32660000000000006         -1.3410894380768866E-024
  0.32770000000000005         -1.5424436685859558E-024
  0.32880000000000004         -1.0290319438433744E-024
  0.32990000000000003          1.1605765831810877E-025
  0.33100000000000002          1.5010732362405713E-024
  0.33210000000000001          2.5407789570040857E-024
  0.33320000000000005          2.6800055523746764E-024
  0.33430000000000004          1.6461329318516565E-024
  0.33540000000000003         -3.7564370708991457E-025
  0.33650000000000002         -2.7347597008078531E-024
  0.33760000000000001         -4.5078369239655445E-024
  0.33870000000000006         -4.8418754209804445E-024
  0.33980000000000005         -3.3251346297031687E-024
  0.34090000000000004         -2.3124614032040201E-025
  0.34200000000000003          3.4870821328589855E-024
  0.34310000000000002          6.4892482490925233E-024
  0.34420000000000001          7.5399330982819885E-024
  0.34530000000000005          6.0229520841071860E-024
  0.34640000000000004          2.2606962560958084E-024
  0.34750000000000003         -2.5208942754517773E-024
  0.34860000000000002         -6.6096572272633426E-024
  0.34970000000000001         -8.4723307062096329E-024
  0.35080000000000006         -7.4078103071490356E-024
  0.35190000000000005         -3.9013190888078585E-024
  0.35300000000000004          5.1176135246488841E-025
  0.35410000000000003          3.8693183415924781E-024
  0.35520000000000002          4.6699586477580768E-024
  0.35630000000000001          2.6499282884807168E-024
  0.35740000000000005         -9.2950501048244543E-025
  0.35850000000000004         -3.6965635676826769E-024
  0.35960000000000003         -3.2083306403506688E-024
  0.36070000000000002          1.7637512840003763E-024
  0.36180000000000001          1.0261927203741372E-023
  0.36290000000000006          1.9003334526426657E-023
  0.36400000000000005          2.3314461833752676E-023
  0.36510000000000004          1.8943964167247208E-023
  0.36620000000000003          4.1334786971300343E-024
  0.36730000000000002         -1.8903467819140885E-023
  0.36840000000000006         -4.3847794821473385E-023
  0.36950000000000005         -6.1807511862887990E-023
  0.37060000000000004         -6.4201811752378864E-023
  0.37170000000000003         -4.6079374786577425E-023
  0.37280000000000002         -8.6402719407135741E-024
  0.37390000000000001          4.0125894979946619E-023
  0.37500000000000006          8.7174391335815956E-023
  0.37610000000000005          1.1813888468172719E-022
  0.37720000000000004          1.2188729064792529E-022
  0.37830000000000003          9.4311432038648957E-023
  0.37940000000000002          3.9945787164991107E-023
  0.38050000000000006         -2.9235146144408810E-023
  0.38160000000000005         -9.7433533461550621E-023
  0.38270000000000004         -1.4970813604543456E-022
  0.38380000000000003         -1.7594389423150964E-022
  0.38490000000000002         -1.7265039320011030E-022
  0.38600000000000001         -1.4208878089353142E-022
  0.38710000000000000         -8.9451385252769574E-023
  0.38819999999999999         -1.9765938821479012E-023
  0.38930000000000009          6.3605083768102940E-023
  0.39040000000000008          1.5773230133549117E-022
  0.39150000000000007          2.5645197852943488E-022
  0.39260000000000006          3.4610819535518651E-022
  0.39370000000000005          4.0347192574100130E-022
  0.39480000000000004          3.9833308496494748E-022
  0.39590000000000003          3.0167937586399729E-022
  0.39700000000000002          9.7937374122746534E-023
  0.39810000000000001         -2.0261714235707394E-022
  0.39920000000000000         -5.5641547769097743E-022
  0.40029999999999999         -8.8861536749725275E-022
  0.40140000000000009         -1.1064713892601282E-021
  0.40250000000000008         -1.1220893217199938E-021
  0.40360000000000007         -8.7883183136648273E-022
  0.40470000000000006         -3.7345719145322551E-022
  0.40580000000000005          3.3350756474317080E-022
  0.40690000000000004          1.1235128310386686E-021
  0.40800000000000003          1.8412978988548534E-021
  0.40910000000000002          2.3262873732515148E-021
  0.41020000000000001          2.4455311912433734E-021
  0.41130000000000000          2.1196979039682282E-021
  0.41239999999999999          1.3368291714015548E-021
  0.41350000000000009          1.5357825938861653E-022
  0.41460000000000008         -1.3117075686712041E-021
  0.41570000000000007         -2.8877168992895919E-021
  0.41680000000000006         -4.3562565122726332E-021
  0.41790000000000005         -5.4565350314664077E-021
  0.41900000000000004         -5.8949638210178859E-021
  0.42010000000000003         -5.3720678144732753E-021
  0.42120000000000002         -3.6370359459819854E-021
  0.42230000000000001         -5.7244340011583770E-022
  0.42340000000000000          3.7021092901723535E-021
  0.42449999999999999          8.7344720667664227E-021
  0.42560000000000009          1.3691499223163888E-020
  0.42670000000000008          1.7398844269420876E-020
  0.42780000000000007          1.8498612294244340E-020
  0.42890000000000006          1.5728856878048394E-020
  0.43000000000000005          8.2931482383627154E-021
  0.43110000000000004         -3.7493450179073873E-021
  0.43220000000000003         -1.9172735091508761E-020
  0.43330000000000002         -3.5463389900657636E-020
  0.43440000000000001         -4.8986437036644574E-020
  0.43550000000000000         -5.5494843285542400E-020
  0.43659999999999999         -5.0968343203001055E-020
  0.43770000000000009         -3.2684484158956599E-020
  0.43880000000000008         -3.3669024133217303E-022
  0.43990000000000007          4.3057591523054798E-020
  0.44100000000000006          9.0750613904760971E-020
  0.44210000000000005          1.3263053451343855E-019
  0.44320000000000004          1.5653762853356859E-019
  0.44430000000000003          1.5053977514422725E-019
  0.44540000000000002          1.0594390331493744E-019
  0.44650000000000001          2.0558337147077336E-020
  0.44760000000000000         -9.8517392404054101E-020
  0.44869999999999999         -2.3344126147647641E-019
  0.44980000000000009         -3.5635504396448927E-019
  0.45090000000000008         -4.3287444257388977E-019
  0.45200000000000007         -4.2843068938291306E-019
  0.45310000000000006         -3.1684953605761096E-019
  0.45420000000000005         -8.9765118690628514E-020
  0.45530000000000004          2.3523854969848214E-019
  0.45640000000000003          6.1026166735589864E-019
  0.45750000000000002          9.5888538047402251E-019
  0.45860000000000001          1.1857466961956178E-018
  0.45970000000000000          1.1940618396714235E-018
  0.46079999999999999          9.0931130387974443E-019
  0.46190000000000009          3.0515571358397721E-019
  0.46300000000000008         -5.7417895112756133E-019
  0.46410000000000007         -1.6017726628062539E-018
  0.46520000000000006         -2.5724567744349826E-018
  0.46630000000000005         -3.2280388761400070E-018
  0.46740000000000004         -3.3037088809869991E-018
  0.46850000000000003         -2.5909491366498874E-018
  0.46960000000000002         -1.0067716712561683E-018
  0.47070000000000001          1.3456079890167458E-018
  0.47180000000000000          4.1420988181186214E-018
  0.47289999999999999          6.8456236980881487E-018
  0.47400000000000009          8.7680183050817388E-018
  0.47510000000000008          9.1879342817468020E-018
  0.47620000000000007          7.5140053094045538E-018
  0.47730000000000006          3.4684003905550478E-018
  0.47840000000000005         -2.7466198846882849E-018