 -0.12000000000000000          0.0000000000000000     
 -0.11889999999999999          0.0000000000000000     
 -0.11780000000000000          0.0000000000000000     
 -0.11670000000000000          0.0000000000000000     
 -0.11559999999999999          0.0000000000000000     
 -0.11449999999999999          0.0000000000000000     
 -0.11340000000000000          0.0000000000000000     
 -0.11230000000000000          0.0000000000000000     
 -0.11119999999999999          0.0000000000000000     
 -0.11009999999999999          0.0000000000000000     
 -0.10900000000000000          0.0000000000000000     
 -0.10790000000000000          0.0000000000000000     
 -0.10679999999999999          0.0000000000000000     
 -0.10569999999999999          0.0000000000000000     
 -0.10460000000000000          0.0000000000000000     
 -0.10349999999999999          0.0000000000000000     
 -0.10239999999999999          0.0000000000000000     
 -0.10130000000000000          0.0000000000000000     
 -0.10020000000000000          0.0000000000000000     
  -9.9099999999999994E-002     0.0000000000000000     
  -9.7999999999999990E-002     0.0000000000000000     
  -9.6899999999999986E-002     0.0000000000000000     
  -9.5799999999999996E-002     0.0000000000000000     
  -9.4699999999999993E-002     0.0000000000000000     
  -9.3599999999999989E-002     0.0000000000000000     
  -9.2499999999999999E-002     0.0000000000000000     
  -9.1399999999999995E-002     0.0000000000000000     
  -9.0299999999999991E-002     0.0000000000000000     
  -8.9200000000000002E-002     0.0000000000000000     
  -8.8099999999999984E-002     0.0000000000000000     
  -8.6999999999999994E-002     0.0000000000000000     
  -8.5899999999999990E-002     0.0000000000000000     
  -8.4799999999999986E-002     0.0000000000000000     
  -8.3699999999999997E-002     0.0000000000000000     
  -8.2599999999999993E-002     0.0000000000000000     
  -8.1499999999999989E-002     0.0000000000000000     
  -8.0399999999999999E-002     0.0000000000000000     
  -7.9299999999999995E-002     0.0000000000000000     
  -7.8199999999999992E-002     0.0000000000000000     
  -7.7100000000000002E-002     0.0000000000000000     
  -7.5999999999999984E-002     0.0000000000000000     
  -7.4899999999999994E-002     0.0000000000000000     
  -7.3799999999999991E-002     0.0000000000000000     
  -7.2699999999999987E-002     0.0000000000000000     
  -7.1599999999999997E-002     0.0000000000000000     
  -7.0499999999999993E-002     0.0000000000000000     
  -6.9399999999999989E-002     0.0000000000000000     
  -6.8300000000000000E-002     0.0000000000000000     
  -6.7199999999999996E-002     0.0000000000000000     
  -6.6099999999999992E-002     0.0000000000000000     
  -6.5000000000000002E-002     0.0000000000000000     
  -6.3899999999999985E-002     0.0000000000000000     
  -6.2799999999999995E-002     0.0000000000000000     
  -6.1699999999999991E-002     0.0000000000000000     
  -6.0599999999999994E-002     0.0000000000000000     
  -5.9499999999999990E-002     0.0000000000000000     
  -5.8399999999999994E-002     0.0000000000000000     
  -5.7299999999999990E-002     0.0000000000000000     
  -5.6199999999999986E-002     0.0000000000000000     
  -5.5099999999999996E-002     0.0000000000000000     
  -5.3999999999999992E-002     0.0000000000000000     
  -5.2899999999999989E-002     0.0000000000000000     
  -5.1799999999999985E-002     0.0000000000000000     
  -5.0699999999999995E-002     0.0000000000000000     
  -4.9599999999999991E-002     0.0000000000000000     
  -4.8499999999999988E-002     0.0000000000000000     
  -4.7399999999999998E-002     0.0000000000000000     
  -4.6299999999999994E-002     0.0000000000000000     
  -4.5199999999999990E-002     0.0000000000000000     
  -4.4099999999999986E-002     0.0000000000000000     
  -4.2999999999999997E-002     0.0000000000000000     
  -4.1899999999999993E-002     0.0000000000000000     
  -4.0799999999999989E-002     0.0000000000000000     
  -3.9699999999999985E-002     0.0000000000000000     
  -3.8599999999999995E-002     0.0000000000000000     
  -3.7499999999999992E-002     0.0000000000000000     
  -3.6399999999999988E-002     0.0000000000000000     
  -3.5299999999999984E-002     0.0000000000000000     
  -3.4199999999999994E-002     0.0000000000000000     
  -3.3099999999999991E-002     0.0000000000000000     
  -3.1999999999999987E-002     0.0000000000000000     
  -3.0899999999999997E-002     0.0000000000000000     
  -2.9799999999999993E-002     0.0000000000000000     
  -2.8699999999999989E-002     0.0000000000000000     
  -2.7599999999999986E-002     0.0000000000000000     
  -2.6499999999999996E-002     0.0000000000000000     
  -2.5399999999999992E-002     0.0000000000000000     
  -2.4299999999999988E-002     0.0000000000000000     
  -2.3199999999999985E-002     0.0000000000000000     
  -2.2099999999999995E-002     0.0000000000000000     
  -2.0999999999999991E-002     0.0000000000000000     
  -1.9899999999999987E-002     0.0000000000000000     
  -1.8799999999999983E-002     0.0000000000000000     
  -1.7699999999999994E-002     0.0000000000000000     
  -1.6599999999999990E-002     0.0000000000000000     
  -1.5499999999999986E-002     0.0000000000000000     
  -1.4399999999999996E-002     0.0000000000000000     
  -1.3299999999999992E-002     0.0000000000000000     
  -1.2199999999999989E-002     0.0000000000000000     
  -1.1099999999999985E-002     0.0000000000000000     
  -9.9999999999999950E-003     0.0000000000000000     
  -8.8999999999999913E-003     0.0000000000000000     
  -7.7999999999999875E-003     0.0000000000000000     
  -6.6999999999999837E-003     0.0000000000000000     
  -5.5999999999999939E-003     0.0000000000000000     
  -4.4999999999999901E-003     0.0000000000000000     
  -3.3999999999999864E-003     0.0000000000000000     
  -2.2999999999999826E-003     0.0000000000000000     
  -1.1999999999999927E-003     0.0000000000000000     
  -9.9999999999988987E-005     0.0000000000000000     
   1.0000000000000148E-003     0.0000000000000000     
   2.1000000000000185E-003     0.0000000000000000     
   3.2000000000000084E-003     0.0000000000000000     
   4.3000000000000121E-003     0.0000000000000000     
   5.4000000000000159E-003     0.0000000000000000     
   6.5000000000000058E-003     0.0000000000000000     
   7.6000000000000234E-003     0.0000000000000000     
   8.7000000000000133E-003     0.0000000000000000     
   9.8000000000000032E-003     0.0000000000000000     
   1.0900000000000021E-002     0.0000000000000000     
   1.2000000000000011E-002     0.0000000000000000     
   1.3100000000000001E-002     0.0000000000000000     
   1.4200000000000018E-002     0.0000000000000000     
   1.5300000000000008E-002     0.0000000000000000     
   1.6400000000000026E-002     0.0000000000000000     
   1.7500000000000016E-002     0.0000000000000000     
   1.8600000000000005E-002     0.0000000000000000     
   1.9700000000000023E-002     0.0000000000000000     
   2.0800000000000013E-002     0.0000000000000000     
   2.1900000000000003E-002     0.0000000000000000     
   2.3000000000000020E-002     0.0000000000000000     
   2.4100000000000010E-002     0.0000000000000000     
   2.5200000000000000E-002     0.0000000000000000     
   2.6300000000000018E-002     0.0000000000000000     
   2.7400000000000008E-002     0.0000000000000000     
   2.8500000000000025E-002     0.0000000000000000     
   2.9600000000000015E-002     0.0000000000000000     
   3.0700000000000005E-002     0.0000000000000000     
   3.1800000000000023E-002     0.0000000000000000     
   3.2900000000000013E-002     0.0000000000000000     
   3.4000000000000002E-002     0.0000000000000000     
   3.5100000000000020E-002     0.0000000000000000     
   3.6200000000000010E-002     0.0000000000000000     
   3.7300000000000028E-002     0.0000000000000000     
   3.8400000000000017E-002     0.0000000000000000     
   3.9500000000000007E-002     0.0000000000000000     
   4.0600000000000025E-002     0.0000000000000000     
   4.1700000000000015E-002     0.0000000000000000     
   4.2800000000000005E-002     0.0000000000000000     
   4.3900000000000022E-002     0.0000000000000000     
   4.5000000000000012E-002     0.0000000000000000     
   4.6100000000000002E-002     0.0000000000000000     
   4.7200000000000020E-002     0.0000000000000000     
   4.8300000000000010E-002     0.0000000000000000     
   4.9400000000000027E-002     0.0000000000000000     
   5.0500000000000017E-002     0.0000000000000000     
   5.1600000000000007E-002     0.0000000000000000     
   5.2700000000000025E-002     0.0000000000000000     
   5.3800000000000014E-002     0.0000000000000000     
   5.4900000000000004E-002     0.0000000000000000     
   5.6000000000000022E-002     0.0000000000000000     
   5.7100000000000012E-002     0.0000000000000000     
   5.8200000000000002E-002     0.0000000000000000     
   5.9300000000000019E-002     0.0000000000000000     
   6.0400000000000009E-002     0.0000000000000000     
   6.1500000000000027E-002     0.0000000000000000     
   6.2600000000000017E-002     0.0000000000000000     
   6.3700000000000007E-002     0.0000000000000000     
   6.4800000000000024E-002     0.0000000000000000     
   6.5900000000000014E-002     0.0000000000000000     
   6.7000000000000004E-002     0.0000000000000000     
   6.8100000000000022E-002     0.0000000000000000     
   6.9200000000000012E-002     0.0000000000000000     
   7.0300000000000029E-002     0.0000000000000000     
   7.1400000000000019E-002     0.0000000000000000     
   7.2500000000000009E-002     0.0000000000000000     
   7.3600000000000027E-002     0.0000000000000000     
   7.4700000000000016E-002     0.0000000000000000     
   7.5800000000000006E-002     0.0000000000000000     
   7.6900000000000024E-002     0.0000000000000000     
   7.8000000000000014E-002     0.0000000000000000     
   7.9100000000000004E-002     0.0000000000000000     
   8.0200000000000021E-002     0.0000000000000000     
   8.1300000000000011E-002     0.0000000000000000     
   8.2400000000000029E-002     0.0000000000000000     
   8.3500000000000019E-002     0.0000000000000000     
   8.4600000000000009E-002     0.0000000000000000     
   8.5700000000000026E-002     0.0000000000000000     
   8.6800000000000016E-002     0.0000000000000000     
   8.7900000000000006E-002     0.0000000000000000     
   8.9000000000000024E-002     0.0000000000000000     
   9.0100000000000013E-002     0.0000000000000000     
   9.1200000000000003E-002     0.0000000000000000     
   9.2300000000000021E-002     0.0000000000000000     
   9.3400000000000011E-002     0.0000000000000000     
   9.4500000000000028E-002     0.0000000000000000     
   9.5600000000000018E-002     0.0000000000000000     
   9.6700000000000008E-002     0.0000000000000000     
   9.7800000000000026E-002     0.0000000000000000     
   9.8900000000000016E-002     0.0000000000000000     
  0.10000000000000001          0.0000000000000000     
  0.10110000000000002          0.0000000000000000     
  0.10220000000000001          0.0000000000000000     
  0.10330000000000003          0.0000000000000000     
  0.10440000000000002          0.0000000000000000     
  0.10550000000000001          0.0000000000000000     
  0.10660000000000003          0.0000000000000000     
  0.10770000000000002          0.0000000000000000     
  0.10880000000000001          0.0000000000000000     
  0.10990000000000003          0.0000000000000000     
  0.11100000000000002          0.0000000000000000     
  0.11210000000000001          0.0000000000000000     
  0.11320000000000002          0.0000000000000000     
  0.11430000000000001          0.0000000000000000     
  0.11540000000000003          0.0000000000000000     
  0.11650000000000002          0.0000000000000000     
  0.11760000000000001          0.0000000000000000     
  0.11870000000000003          0.0000000000000000     
  0.11980000000000002          0.0000000000000000     
  0.12090000000000001          0.0000000000000000     
  0.12200000000000003          0.0000000000000000     
  0.12310000000000001          0.0000000000000000     
  0.12420000000000003          0.0000000000000000     
  0.12530000000000002          0.0000000000000000     
  0.12640000000000001          0.0000000000000000     
  0.12750000000000003          0.0000000000000000     
  0.12860000000000002          0.0000000000000000     
  0.12970000000000001          0.0000000000000000     
  0.13080000000000003          0.0000000000000000     
  0.13190000000000002          0.0000000000000000     
  0.13300000000000001          0.0000000000000000     
  0.13410000000000000          0.0000000000000000     
  0.13520000000000004          0.0000000000000000     
  0.13630000000000003          0.0000000000000000     
  0.13740000000000002          0.0000000000000000     
  0.13850000000000001          0.0000000000000000     
  0.13960000000000000          0.0000000000000000     
  0.14070000000000005          0.0000000000000000     
  0.14180000000000004          0.0000000000000000     
  0.14290000000000003          0.0000000000000000     
  0.14400000000000002          4.3249952924855069E-048
  0.14510000000000001          8.6499905849710137E-048
  0.14620000000000000          8.6499905849710137E-048
  0.14730000000000004         -4.3249952924855069E-048
  0.14840000000000003         -2.5949971754913041E-047
  0.14950000000000002         -2.1624976462427534E-047
  0.15060000000000001          1.7299981169942027E-047
  0.15170000000000000          1.0355415840905717E-046
  0.15280000000000005          1.6385836389325927E-046
  0.15390000000000004          1.1628341567591870E-046
  0.15500000000000003         -1.0186676557100760E-046
  0.15610000000000002         -1.8810945514211292E-045
  0.15720000000000001         -3.4859135661703696E-045
  0.15830000000000000         -3.1937797125559933E-045
  0.15940000000000004          3.3380938329579620E-045
  0.16050000000000003          1.2903509241421345E-044
  0.16160000000000002          1.6376513231366246E-044
  0.16270000000000001          4.3166238005901691E-045
  0.16380000000000000         -2.0902719481911555E-044
  0.16490000000000005         -5.0325008041735727E-044
  0.16600000000000004         -5.9287348622667930E-044
  0.16710000000000003         -2.1594849422727364E-044
  0.16820000000000002          6.8942409976803936E-044
  0.16930000000000001          1.8975588236275878E-043
  0.17040000000000000          2.5743580258842985E-043
  0.17150000000000004          1.6096171643842111E-043
  0.17260000000000003         -1.8408748546087168E-043
  0.17370000000000002         -7.1549918395224643E-043
  0.17480000000000001         -1.1255654014153839E-042
  0.17590000000000000         -9.1233684874933971E-043
  0.17700000000000005          3.5165152579531087E-043
  0.17810000000000004          2.5259577305163324E-042
  0.17920000000000003          4.5092686253373857E-042
  0.18030000000000002          4.3174008404380810E-042
  0.18140000000000001          7.7225720942151067E-044
  0.18250000000000000         -8.1776334063778602E-042
  0.18360000000000004         -1.6819961877791685E-041
  0.18470000000000003         -1.8651573394364208E-041
  0.18580000000000002         -6.0604277087542735E-042
  0.18690000000000001          2.2770890788361407E-041
  0.18800000000000000          5.7441348663771104E-041
  0.18910000000000005          7.3923081191785281E-041
  0.19020000000000004          4.3322107218146860E-041
  0.19130000000000003         -4.8368254097949589E-041
  0.19240000000000002         -1.7707754784130499E-040
  0.19350000000000001         -2.6981108866733118E-040
  0.19460000000000005         -2.2408603768809950E-040
  0.19570000000000004          3.4869436097956242E-041
  0.19680000000000003          4.7496138743280795E-040
  0.19790000000000002          8.9992452971062048E-040
  0.19900000000000001          9.7285639139129403E-040
  0.20010000000000000          3.6261173992024573E-040
  0.20120000000000005         -1.0043881669822475E-039
  0.20230000000000004         -2.6934016997331017E-039
  0.20340000000000003         -3.6952504057716030E-039
  0.20450000000000002         -2.7307944193376625E-039
  0.20560000000000000          1.0163590702990274E-039
  0.20670000000000005          6.9465009677983547E-039
  0.20780000000000004          1.2394171438980700E-038
  0.20890000000000003          1.2986988813265578E-038
  0.21000000000000002          4.5259764455605746E-039
  0.21110000000000001         -1.3814301563879915E-038
  0.21220000000000000         -3.6289211897138326E-038
  0.21330000000000005         -4.9732840108546315E-038
  0.21440000000000003         -3.7472145159461545E-038
  0.21550000000000002          1.1223507248477786E-038
  0.21660000000000001          8.8867364542443134E-038
  0.21770000000000000          1.6147918624796333E-037
  0.21880000000000005          1.7330523920994342E-037
  0.21990000000000004          7.0715019401819856E-038
  0.22100000000000003         -1.5793137874389580E-037
  0.22210000000000002         -4.4347932133396472E-037
  0.22320000000000001         -6.2666018671736151E-037
  0.22430000000000000         -5.0570829435849467E-037
  0.22540000000000004          5.2764959643520790E-038
  0.22650000000000003          9.7332021661419747E-037
  0.22760000000000002          1.8787706477321848E-036
  0.22870000000000001          2.1408579795241077E-036
  0.22980000000000000          1.1361635286734118E-036
  0.23090000000000005         -1.3297284266721823E-036
  0.23200000000000004         -4.6039040382295898E-036
  0.23310000000000003         -7.0561050549607949E-036
  0.23420000000000002         -6.5098244792884374E-036
  0.23530000000000001         -1.3130042274397773E-036
  0.23640000000000000          8.2395641544639035E-036
  0.23750000000000004          1.8828535127971206E-035
  0.23860000000000003          2.4289424537391067E-035
  0.23970000000000002          1.7731188761071836E-035
  0.24080000000000001         -4.5279443946951021E-036
  0.24190000000000000         -3.8553673292353308E-035
  0.24300000000000005         -7.0402405189145228E-035
  0.24410000000000004         -7.8516801394400877E-035
  0.24520000000000003         -4.2425137249810598E-035
  0.24630000000000002          4.3728809631175581E-035
  0.24740000000000001          1.5823210562609468E-034
  0.24850000000000005          2.4785714205114176E-034
  0.24960000000000004          2.4102728223259479E-034
  0.25070000000000003          8.0630474777046202E-035
  0.25180000000000002         -2.3158430123209624E-034
  0.25290000000000001         -5.9926829989326613E-034
  0.25400000000000000         -8.3179102281793641E-034
  0.25510000000000005         -7.0263344893762718E-034
  0.25620000000000004         -6.5621993472182447E-035
  0.25730000000000003          1.0068408815688914E-033
  0.25840000000000002          2.1344735528406657E-033
  0.25950000000000001          2.6723569899113858E-033
  0.26060000000000005          1.9396616231437963E-033
  0.26170000000000004         -3.9396927793116717E-034
  0.26280000000000003         -3.9032218268379186E-033
  0.26390000000000002         -7.2137270753850648E-033
  0.26500000000000001         -8.2578344475696749E-033
  0.26610000000000000         -5.0866867349076110E-033
  0.26720000000000005          2.9207598101798767E-033
  0.26830000000000004          1.3932761148741277E-032
  0.26940000000000003          2.3324365616016270E-032
  0.27050000000000002          2.4756724256885041E-032
  0.27160000000000001          1.2845158786629959E-032
  0.27270000000000005         -1.3230454658398777E-032
  0.27380000000000004         -4.6707270623681095E-032
  0.27490000000000003         -7.2844456457394151E-032
  0.27600000000000002         -7.2803670391815158E-032
  0.27710000000000001         -3.1951157994864525E-032
  0.27820000000000000          4.9660228936778698E-032
  0.27930000000000005          1.4928048328912160E-031
  0.28040000000000004          2.2168849336772386E-031
  0.28150000000000003          2.1194515592579679E-031
  0.28260000000000002          8.0355208161825479E-032
  0.28370000000000001         -1.6754262841671576E-031
  0.28480000000000005         -4.5968152726550794E-031
  0.28590000000000004         -6.6108675863988288E-031
  0.28700000000000003         -6.1360247907779575E-031
  0.28810000000000002         -2.0918977467138560E-031
  0.28920000000000001          5.2523726323752653E-031
  0.29030000000000000          1.3711651070093489E-030
  0.29140000000000005          1.9351487930997779E-030
  0.29250000000000004          1.7678049625359672E-030
  0.29360000000000003          5.7420180239020090E-031
  0.29470000000000002         -1.5496654961861675E-030
  0.29580000000000001         -3.9666560171145402E-030
  0.29690000000000005         -5.5577458476941495E-030
  0.29800000000000004         -5.0649691348982808E-030
  0.29910000000000003         -1.6797561359157353E-030
  0.30020000000000002          4.3093599428414951E-030
  0.30130000000000001          1.1118109138832878E-029
  0.30240000000000000          1.5646311771203708E-029
  0.30350000000000005          1.4425472407009866E-029
  0.30460000000000004          5.2185094616713507E-030
  0.30570000000000003         -1.1234433525526523E-029
  0.30680000000000002         -3.0145645596113463E-029
  0.30790000000000001         -4.3151266603672748E-029
  0.30900000000000005         -4.0816658444366892E-029
  0.31010000000000004         -1.6871508868806007E-029
  0.31120000000000003          2.7140457365374019E-029
  0.31230000000000002          7.8929271750863682E-029
  0.31340000000000001          1.1650306945935986E-028
  0.31450000000000006          1.1451104543112061E-028
  0.31560000000000005          5.5190217974941146E-029
  0.31670000000000004         -5.9364303439137665E-029
  0.31780000000000003         -1.9902487269395305E-028
  0.31890000000000002         -3.0741733253875310E-028
  0.32000000000000001         -3.1731393309461904E-028
  0.32110000000000005         -1.7829630304204892E-028
  0.32220000000000004          1.1119621420731874E-028
  0.32330000000000003          4.8095402336520937E-028
  0.32440000000000002          7.9033505921024630E-028
  0.32550000000000001          8.6399070735600064E-028
  0.32660000000000006          5.6009148785775820E-028
  0.32770000000000005         -1.4720360842892203E-028
  0.32880000000000004         -1.1040480780349933E-027
  0.32990000000000003         -1.9704052618570947E-027
  0.33100000000000002         -2.2986637061685571E-027
  0.33210000000000001         -1.6970778506731611E-027
  0.33320000000000005         -3.7645582348977269E-029
  0.33430000000000004          2.3700038016884952E-027
  0.33540000000000003          4.7344145845131180E-027
  0.33650000000000002          5.9432604443466189E-027
  0.33760000000000001          4.9410807961708453E-027
  0.33870000000000006          1.2398304236533325E-027
  0.33980000000000005         -4.6177980897076020E-027
  0.34090000000000004         -1.0874615136260080E-026
  0.34200000000000003         -1.4853945151175539E-026
  0.34310000000000002         -1.3794897196967640E-026
  0.34420000000000001         -6.0683856233502931E-027
  0.34530000000000005          7.6225181816478936E-027
  0.34640000000000004          2.3605844105783069E-026
  0.34750000000000003          3.5679937332118940E-026
  0.34860000000000002          3.6861162653502735E-026
  0.34970000000000001          2.2179229184244317E-026
  0.35080000000000006         -8.3098280709681467E-027
  0.35190000000000005         -4.7543825722623798E-026
  0.35300000000000004         -8.1787347897543550E-026
  0.35410000000000003         -9.4031907850288801E-026
  0.35520000000000002         -7.0159874458649915E-026
  0.35630000000000001         -6.2410283100327789E-027
  0.35740000000000005          8.5787068777473862E-026
  0.35850000000000004          1.7714439217074112E-025
  0.35960000000000003          2.2815530698887174E-025
  0.36070000000000002          2.0117097127992258E-025
  0.36180000000000001          7.7530951579301994E-026
  0.36290000000000006         -1.2720682454768824E-025
  0.36400000000000005         -3.5694228287568912E-025
  0.36510000000000004         -5.2363508863180536E-025
  0.36620000000000003         -5.3270361825628504E-025
  0.36730000000000002         -3.2063316053391481E-025
  0.36840000000000006          1.0664580755126118E-025
  0.36950000000000005          6.5053429279142411E-025
  0.37060000000000004          1.1269888434573950E-024
  0.37170000000000003          1.3121909370094349E-024
  0.37280000000000002          1.0214062382442818E-024
  0.37390000000000001          2.0003053145362832E-025
  0.37500000000000006         -1.0067104947575447E-024
  0.37610000000000005         -2.2419052668816111E-024
  0.37720000000000004         -3.0082940156289529E-024
  0.37830000000000003         -2.8226375493234096E-024
  0.37940000000000002         -1.4187059143601649E-024
  0.38050000000000006          1.0673941456085376E-024
  0.38160000000000005          4.0113955274699272E-024
  0.38270000000000004          6.3838054045161675E-024
  0.38380000000000003          7.0257730524195040E-024
  0.38490000000000002          5.0720108296111358E-024
  0.38600000000000001          3.9999849628152978E-025
  0.38710000000000000         -6.0663765274441786E-024
  0.38819999999999999         -1.2369435583827438E-023
  0.38930000000000009         -1.5947289517126905E-023
  0.39040000000000008         -1.4447941282037234E-023
  0.39150000000000007         -6.7318522205320371E-024
  0.39260000000000006          6.2719732213528297E-024
  0.39370000000000005          2.1242486371936967E-023
  0.39480000000000004          3.2977098043868973E-023
  0.39590000000000003          3.5807303799234024E-023
  0.39700000000000002          2.5658838231449140E-023
  0.39810000000000001          2.1605288335893518E-024
  0.39920000000000000         -3.0003046841540182E-023
  0.40029999999999999         -6.1262336673136491E-023
  0.40140000000000009         -7.9277255480130705E-023
  0.40250000000000008         -7.2797186226375689E-023
  0.40360000000000007         -3.6333329377153500E-023
  0.40470000000000006          2.5894716295743611E-023
  0.40580000000000005          9.8478792389597339E-023
  0.40690000000000004          1.5714689111816962E-022
  0.40800000000000003          1.7519380841332766E-022
  0.40910000000000002          1.3284739945715250E-022
  0.41020000000000001          2.6923917699853047E-023
  0.41130000000000000         -1.2279475824377377E-022
  0.41239999999999999         -2.7387737722493427E-022
  0.41350000000000009         -3.7017819698375452E-022
  0.41460000000000008         -3.5865176300222383E-022
  0.41570000000000007         -2.1012603353685763E-022
  0.41680000000000006          6.2544085834907136E-023
  0.41790000000000005          3.9649929584281483E-022
  0.41900000000000004          6.8707452229054687E-022
  0.42010000000000003          8.1392891495505669E-022
  0.42120000000000002          6.8073026811000368E-022
  0.42230000000000001          2.5773465911220993E-022
  0.42340000000000000         -3.8755309056295243E-022
  0.42449999999999999         -1.0863483848986655E-021
  0.42560000000000009         -1.6003683476999008E-021
  0.42670000000000008         -1.6881607706631085E-021
  0.42780000000000007         -1.1917848901827827E-021
  0.42890000000000006         -1.1823798491088922E-022
  0.43000000000000005          1.3153124097292957E-021
  0.43110000000000004          2.6990874223698196E-021
  0.43220000000000003          3.5225133321354644E-021
  0.43330000000000002          3.3283199944284892E-021
  0.43440000000000001          1.8912784324668110E-021
  0.43550000000000000         -6.3536717853339531E-022
  0.43659999999999999         -3.6670514512712359E-021
  0.43770000000000009         -6.2735844535452407E-021
  0.43880000000000008         -7.4115724202183834E-021
  0.43990000000000007         -6.2618895853325497E-021
  0.44100000000000006         -2.5818333218727684E-021
  0.44210000000000005          3.0484853880711092E-021
  0.44320000000000004          9.2015760860281451E-021
  0.44430000000000003          1.3869323306435032E-020
  0.44540000000000002          1.5006799210641540E-020
  0.44650000000000001          1.1237538530277262E-020
  0.44760000000000000          2.5168786084961693E-021
  0.44869999999999999         -9.4899963666112383E-021
  0.44980000000000009         -2.1523677105350310E-020
  0.45090000000000008         -2.9431240239243207E-020
  0.45200000000000007         -2.9363842880263777E-020
  0.45310000000000006         -1.9187200906029372E-020
  0.45420000000000005          3.2685587350149429E-022
  0.45530000000000004          2.4995964868270806E-020
  0.45640000000000003          4.7762204538076217E-020
  0.45750000000000002          6.0352000525785764E-020
  0.45860000000000001          5.5782655179924931E-020
  0.45970000000000000          3.1077021110144103E-020
  0.46079999999999999         -1.0685141522776877E-020
  0.46190000000000009         -5.9845237536494704E-020
  0.46300000000000008         -1.0173892901870534E-019
  0.46410000000000007         -1.2036280343343497E-019
  0.46520000000000006         -1.0342549054789649E-019
  0.46630000000000005         -4.7429697539007440E-020
  0.46740000000000004          3.8916733254372186E-020
  0.46850000000000003          1.3452549932023935E-019
  0.46960000000000002          2.0985613030056421E-019
  0.47070000000000001          2.3465607302634399E-019
  0.47180000000000000          1.8787152015568052E-019
  0.47289999999999999          6.6957546247951426E-020
  0.47400000000000009         -1.0666624523815698E-019
  0.47510000000000008         -2.8878000691041738E-019
  0.47620000000000007         -4.2138241693996833E-019
  0.47730000000000006         -4.4848519338201179E-019
  0.47840000000000005         -3.3509060006598611E-019