 -0.12000000000000000          0.0000000000000000     
 -0.11889999999999999          0.0000000000000000     
 -0.11780000000000000          0.0000000000000000     
 -0.11670000000000000          0.0000000000000000     
 -0.11559999999999999          0.0000000000000000     
 -0.11449999999999999          0.0000000000000000     
 -0.11340000000000000          0.0000000000000000     
 -0.11230000000000000          0.0000000000000000     
 -0.11119999999999999          0.0000000000000000     
 -0.11009999999999999          0.0000000000000000     
 -0.10900000000000000          0.0000000000000000     
 -0.10790000000000000          0.0000000000000000     
 -0.10679999999999999          1.9393970746255468E-042
 -0.10569999999999999         -7.2995038305144046E-041
 -0.10460000000000000         -1.7456535489479976E-040
 -0.10349999999999999          2.7586003607652279E-039
 -0.10239999999999999          4.8007406387950703E-039
 -0.10130000000000000         -1.3221046981848243E-037
 -0.10020000000000000         -9.4399930641721743E-037
  -9.9099999999999994E-002    -2.3999739705346916E-036
  -9.7999999999999990E-002     1.8712088599958315E-036
  -9.6899999999999986E-002     2.9376286853551640E-035
  -9.5799999999999996E-002     6.0249004418405197E-035
  -9.4699999999999993E-002    -1.6196410011616949E-034
  -9.3599999999999989E-002    -1.3349327107670608E-033
  -9.2499999999999999E-002    -3.6757410803205378E-033
  -9.1399999999999995E-002    -2.6738681634696638E-033
  -9.0299999999999991E-002     1.7451843167000685E-032
  -8.9200000000000002E-002     7.6683115367134745E-032
  -8.8099999999999984E-002     1.4050162055887037E-031
  -8.6999999999999994E-002    -1.0105460447790271E-032
  -8.5899999999999990E-002    -8.4245413770324960E-031
  -8.4799999999999986E-002    -2.6070629049260093E-030
  -8.3699999999999997E-002    -3.7404004548249831E-030
  -8.2599999999999993E-002     1.4318398581998916E-030
  -8.1499999999999989E-002     2.2024257759266356E-029
  -8.0399999999999999E-002     5.9187570717349160E-029
  -7.9299999999999995E-002     7.8280451758433233E-029
  -7.8199999999999992E-002    -2.0630277188682720E-029
  -7.7100000000000002E-002    -3.7575333771469750E-028
  -7.5999999999999984E-002    -9.8580929393246991E-028
  -7.4899999999999994E-002    -1.3461102457019924E-027
  -7.3799999999999991E-002    -1.2568061501093444E-028
  -7.2699999999999987E-002     4.4394068035825856E-027
  -7.1599999999999997E-002     1.2504590120511981E-026
  -7.0499999999999993E-002     1.8751319243228692E-026
  -6.9399999999999989E-002     9.0904109079231304E-027
  -6.8300000000000000E-002    -3.5798899227894215E-026
  -6.7199999999999996E-002    -1.2205730474717792E-025
  -6.6099999999999992E-002    -2.0804428972977110E-025
  -6.5000000000000002E-002    -1.7275563251464724E-025
  -6.3899999999999985E-002     1.6408738236904588E-025
  -6.2799999999999995E-002     9.0808342597932637E-025
  -6.1699999999999991E-002     1.8256775562472236E-024
  -6.0599999999999994E-002     2.0711231466520103E-024
  -5.9499999999999990E-002     2.2729616895075373E-025
  -5.8399999999999994E-002    -4.9068110715051304E-024
  -5.7299999999999990E-002    -1.2588830074412349E-023
  -5.6199999999999986E-002    -1.8075294561352068E-023
  -5.5099999999999996E-002    -1.2066787170886050E-023
  -5.3999999999999992E-002     1.5660520332989081E-023
  -5.2899999999999989E-002     6.6685088134522638E-023
  -5.1799999999999985E-002     1.2066196787384583E-022
  -5.0699999999999995E-002     1.2722334685201418E-022
  -4.9599999999999991E-002     1.7705932530587676E-023
  -4.8499999999999988E-002    -2.5061901437415118E-022
  -4.7399999999999998E-002    -6.2183696348037742E-022
  -4.6299999999999994E-002    -8.7613926408431413E-022
  -4.5199999999999990E-002    -6.4157782266941149E-022
  -4.4099999999999986E-002     4.4188367985559203E-022
  -4.2999999999999997E-002     2.3876233147012861E-021
  -4.1899999999999993E-002     4.4715481560766518E-021
  -4.0799999999999989E-002     5.0679809206443303E-021
  -3.9699999999999985E-002     2.0859804740548523E-021
  -3.8599999999999995E-002    -5.7598464172110467E-021
  -3.7499999999999992E-002    -1.7081845104716884E-020
  -3.6399999999999988E-002    -2.6312872163666099E-020
  -3.5299999999999984E-002    -2.4120749836346810E-020
  -3.4199999999999994E-002    -1.1928926911940458E-021
  -3.3099999999999991E-002     4.4522259762933660E-020
  -3.1999999999999987E-002     9.9649944331077469E-020
  -3.0899999999999997E-002     1.3173320421410648E-019
  -2.9799999999999993E-002     9.6704644975460239E-020
  -2.8699999999999989E-002    -3.8723694588368525E-020
  -2.7599999999999986E-002    -2.6389395740732631E-019
  -2.6499999999999996E-002    -4.9557807044850885E-019
  -2.5399999999999992E-002    -5.7797508222856447E-019
  -2.4299999999999988E-002    -3.3361605481183775E-019
  -2.3199999999999985E-002     3.3143868279505090E-019
  -2.2099999999999995E-002     1.2998843473298779E-018
  -2.0999999999999991E-002     2.1633020881576287E-018
  -1.9899999999999987E-002     2.2784245363193900E-018
  -1.8799999999999983E-002     1.0186914325252595E-018
  -1.7699999999999994E-002    -1.8081812502745787E-018
  -1.6599999999999990E-002    -5.5342750493431831E-018
  -1.5499999999999986E-002    -8.4649685149930472E-018
  -1.4399999999999996E-002    -8.2484448906705541E-018
  -1.3299999999999992E-002    -2.8960389406821081E-018
  -1.2199999999999989E-002     7.7664086974277275E-018
  -1.1099999999999985E-002     2.0838135468088860E-017
  -9.9999999999999950E-003     3.0155918095637341E-017
  -8.8999999999999913E-003     2.7936794344227031E-017
  -7.7999999999999875E-003     8.3552678221562647E-018
  -6.6999999999999837E-003    -2.7926335472561910E-017
  -5.5999999999999939E-003    -7.0366130510073028E-017
  -4.4999999999999901E-003    -9.8876134549019705E-017
  -3.3999999999999864E-003    -8.9732552849752442E-017
  -2.2999999999999826E-003    -2.6733582388291072E-017
  -1.1999999999999927E-003     8.5844135608818269E-017
  -9.9999999999988987E-005     2.1470580559090164E-016
   1.0000000000000148E-003     3.0032400177848473E-016
   2.1000000000000185E-003     2.7519541943942622E-016
   3.2000000000000084E-003     9.5380111938345988E-017
   4.3000000000000121E-003    -2.2499336484243994E-016
   5.4000000000000159E-003    -5.9293995079739612E-016
   6.5000000000000058E-003    -8.4667205827921080E-016
   7.6000000000000234E-003    -8.0531869218439418E-016
   8.7000000000000133E-003    -3.5067688117964148E-016
   9.8000000000000032E-003     4.8616768908728812E-016
   1.0900000000000021E-002     1.4744124635936683E-015
   1.2000000000000011E-002     2.2093321299493894E-015
   1.3100000000000001E-002     2.2330162299458037E-015
   1.4200000000000018E-002     1.2299430849065530E-015
   1.5300000000000008E-002    -7.6662596245602173E-016
   1.6400000000000026E-002    -3.2509442152975267E-015
   1.7500000000000016E-002    -5.2930275722291864E-015
   1.8600000000000005E-002    -5.8001999843424867E-015
   1.9700000000000023E-002    -3.9492657055847577E-015
   2.0800000000000013E-002     3.4642594045472736E-016
   2.1900000000000003E-002     6.1328869974531901E-015
   2.3000000000000020E-002     1.1465057656240892E-014
   2.4100000000000010E-002     1.3905805116610787E-014
   2.5200000000000000E-002     1.1403087878786820E-014
   2.6300000000000018E-002     3.2874447708188459E-015
   2.7400000000000008E-002    -8.9981072316476854E-015
   2.8500000000000025E-002    -2.1824679718074509E-014
   2.9600000000000015E-002    -3.0185625049874987E-014
   3.0700000000000005E-002    -2.9307695728836639E-014
   3.1800000000000023E-002    -1.6634736055526171E-014
   3.2900000000000013E-002     6.5131662507712709E-015
   3.4000000000000002E-002     3.4352959387730364E-014
   3.5100000000000020E-002     5.7635387890227208E-014
   3.6200000000000010E-002     6.6240490469073737E-014
   3.7300000000000028E-002     5.2771291026224021E-014
   3.8400000000000017E-002     1.6023942291326990E-014
   3.9500000000000007E-002    -3.6992652864553666E-014
   4.0600000000000025E-002    -9.1563604300622797E-014
   4.1700000000000015E-002    -1.2867643419973290E-013
   4.2800000000000005E-002    -1.3073340966642671E-013
   4.3900000000000022E-002    -8.8031531120680989E-014
   4.5000000000000012E-002    -3.9125146400692881E-015
   4.6100000000000002E-002     1.0344344467377170E-013
   4.7200000000000020E-002     2.0383019816265502E-013
   4.8300000000000010E-002     2.6236955316671917E-013
   4.9400000000000027E-002     2.4985056883662649E-013
   5.0500000000000017E-002     1.5329377307457537E-013
   5.1600000000000007E-002    -1.6526688532774413E-014
   5.2700000000000025E-002    -2.2344624794109341E-013
   5.3800000000000014E-002    -4.1167966930398536E-013
   5.4900000000000004E-002    -5.1859075844359892E-013
   5.6000000000000022E-002    -4.9199739334676584E-013
   5.7100000000000012E-002    -3.0789327793052934E-013
   5.8200000000000002E-002     1.6321247467681460E-014
   5.9300000000000019E-002     4.1764961172634230E-013
   6.0400000000000009E-002     7.9533666978715001E-013
   6.1500000000000027E-002     1.0311403423821086E-012
   6.2600000000000017E-002     1.0192532581831948E-012
   6.3700000000000007E-002     6.9989999039454798E-013
   6.4800000000000024E-002     8.8195767421021809E-014
   6.5900000000000014E-002    -7.1103301198249813E-013
   6.7000000000000004E-002    -1.5103874097602277E-012
   6.8100000000000022E-002    -2.0729290679810664E-012
   6.9200000000000012E-002    -2.1687009826854009E-012
   7.0300000000000029E-002    -1.6447160473831435E-012
   7.1400000000000019E-002    -4.9138292176550968E-013
   7.2500000000000009E-002     1.1156465291525808E-012
   7.3600000000000027E-002     2.8179158225588585E-012
   7.4700000000000016E-002     4.1326811764386129E-012
   7.5800000000000006E-002     4.5652414140673336E-012
   7.6900000000000024E-002     3.7553194061346051E-012
   7.8000000000000014E-002     1.6215154219345607E-012
   7.9100000000000004E-002    -1.5414119633461176E-012
   8.0200000000000021E-002    -5.0549703312086081E-012
   8.1300000000000011E-002    -7.9645708431219653E-012
   8.2400000000000029E-002    -9.2582929170359485E-012
   8.3500000000000019E-002    -8.1569638196721250E-012
   8.4600000000000009E-002    -4.4038483797137484E-012
   8.5700000000000026E-002     1.5346543480454500E-012
   8.6800000000000016E-002     8.4389648047356047E-012
   8.7900000000000006E-002     1.4524704355922680E-011
   8.9000000000000024E-002     1.7841231964021986E-011
   9.0100000000000013E-002     1.6806663699631130E-011
   9.1200000000000003E-002     1.0749248713359805E-011
   9.2300000000000021E-002     2.9649234998575802E-013
   9.3400000000000011E-002    -1.2533082210941515E-011
   9.4500000000000028E-002    -2.4621398669877337E-011
   9.5600000000000018E-002    -3.2415858192136326E-011
   9.6700000000000008E-002    -3.2848227610182690E-011
   9.7800000000000026E-002    -2.4292862860209041E-011
   9.8900000000000016E-002    -7.3001951705897739E-012
  0.10000000000000001          1.5141322223799492E-011
  0.10110000000000002          3.7971847888229604E-011
  0.10220000000000001          5.5063880538552823E-011
  0.10330000000000003          6.0697120940478300E-011
  0.10440000000000002          5.1181881649542404E-011
  0.10550000000000001          2.6215874956991847E-011
  0.10660000000000003         -1.0435778977080368E-011
  0.10770000000000002         -5.1230877179397893E-011
  0.10880000000000001         -8.6192185333455740E-011
  0.10990000000000003         -1.0511682496661123E-010
  0.11100000000000002         -1.0021129065451717E-010
  0.11210000000000001         -6.8530604802052864E-011
  0.11320000000000002         -1.3554962707829077E-011
  0.11430000000000001          5.4641523944409798E-011
  0.11540000000000003          1.2089540479820471E-010
  0.11650000000000002          1.6800683066975353E-010
  0.11760000000000001          1.8079940322657251E-010
  0.11870000000000003          1.5030519884273730E-010
  0.11980000000000002          7.7027599576506844E-011
  0.12090000000000001         -2.7688932743852313E-011
  0.12200000000000003         -1.4281706373076020E-010
  0.12310000000000001         -2.4142099430690678E-010
  0.12420000000000003         -2.9648503097057244E-010
  0.12530000000000002         -2.8763236237239198E-010
  0.12640000000000001         -2.0717598470110232E-010
  0.12750000000000003         -6.3889664392302592E-011
  0.12860000000000002          1.1676751232592153E-010
  0.12970000000000001          2.9652380550970747E-010
  0.13080000000000003          4.3186407228112955E-010
  0.13190000000000002          4.8391696205740686E-010
  0.13300000000000001          4.2852293935524699E-010
  0.13410000000000000          2.6402771635680722E-010
  0.13520000000000004          1.4604133874440706E-011
  0.13630000000000003         -2.7225849352774389E-010
  0.13740000000000002         -5.3418314216457929E-010
  0.13850000000000001         -7.0689915032673412E-010
  0.13960000000000000         -7.3918648979542922E-010
  0.14070000000000005         -6.0640298338299203E-010
  0.14180000000000004         -3.1922053889132940E-010
  0.14290000000000003          7.4988466824965627E-011
  0.14400000000000002          4.9916892841395111E-010
  0.14510000000000001          8.6116536124336562E-010
  0.14620000000000000          1.0731791011409086E-009
  0.14730000000000004          1.0720446752543467E-009
  0.14840000000000003          8.3575374398847657E-010
  0.14950000000000002          3.9216416225507089E-010
  0.15060000000000001         -1.8269165347195582E-010
  0.15170000000000000         -7.7711520551915214E-010
  0.15280000000000005         -1.2650920311330083E-009
  0.15390000000000004         -1.5324177482511914E-009
  0.15500000000000003         -1.5022274535425595E-009
  0.15610000000000002         -1.1543622724374814E-009
  0.15720000000000001         -5.3401066901770378E-010
  0.15830000000000000          2.5289950689177942E-010
  0.15940000000000004          1.0574122688566945E-009
  0.16050000000000003          1.7154404563513026E-009
  0.16160000000000002          2.0806425471420198E-009
  0.16270000000000001          2.0557597846249109E-009
  0.16380000000000000          1.6158597793136664E-009
  0.16490000000000005          8.1824530484553293E-010
  0.16600000000000004         -2.0376846043834718E-010
  0.16710000000000003         -1.2628634804556782E-009
  0.16820000000000002         -2.1519419579618670E-009
  0.16930000000000001         -2.6843187672653812E-009
  0.17040000000000000         -2.7320987694423593E-009
  0.17150000000000004         -2.2549166978080848E-009
  0.17260000000000003         -1.3127730014161898E-009
  0.17370000000000002         -5.9612474678782945E-011
  0.17480000000000001          1.2819729722224338E-009
  0.17590000000000000          2.4607065274295792E-009
  0.17700000000000005          3.2439262387384815E-009
  0.17810000000000004          3.4631657541694949E-009
  0.17920000000000003          3.0490219238288319E-009
  0.18030000000000002          2.0482147089495584E-009
  0.18140000000000001          6.1910904181061710E-010
  0.18250000000000000         -9.9389318997111786E-010
  0.18360000000000004         -2.5026249961257463E-009
  0.18470000000000003         -3.6264755642889668E-009
  0.18580000000000002         -4.1435033182324332E-009
  0.18690000000000001         -3.9322243239325871E-009
  0.18800000000000000         -2.9967148762466422E-009
  0.18910000000000005         -1.4706297291056103E-009
  0.19020000000000004          4.0075470719713735E-010
  0.19130000000000003          2.2979069758122250E-009
  0.19240000000000002          3.8783567468669844E-009
  0.19350000000000001          4.8344483971618502E-009
  0.19460000000000005          4.9489030651272969E-009
  0.19570000000000004          4.1394327965349476E-009
  0.19680000000000003          2.4844570845061753E-009
  0.19790000000000002          2.2386420495124071E-010
  0.19900000000000001         -2.2682615785640792E-009
  0.20010000000000000         -4.5379273672097042E-009
  0.20120000000000005         -6.1266276496496630E-009
  0.20230000000000004         -6.6569572076957684E-009
  0.20340000000000003         -5.9135309982139006E-009
  0.20450000000000002         -3.9025391807001597E-009
  0.20560000000000000         -8.7482598942756340E-010
  0.20670000000000005          2.6972277744619078E-009
  0.20780000000000004          6.1900062853226245E-009
  0.20890000000000003          8.9366327671314139E-009
  0.21000000000000002          1.0353284451980471E-008
  0.21110000000000001          1.0058112565047850E-008
  0.21220000000000000          7.9562658683585141E-009
  0.21330000000000005          4.2704311198349387E-009
  0.21440000000000003         -4.9202975027640150E-010
  0.21550000000000002         -5.6293907313431646E-009
  0.21660000000000001         -1.0373152115050743E-008
  0.21770000000000000         -1.4023266103890819E-008
  0.21880000000000005         -1.6059608753948851E-008
  0.21990000000000004         -1.6205163433369307E-008
  0.22100000000000003         -1.4430237449403194E-008
  0.22210000000000002         -1.0903895564240429E-008
  0.22320000000000001         -5.9136819885452496E-009
  0.22430000000000000          2.1714688380747305E-010
  0.22540000000000004          7.1868933027019466E-009
  0.22650000000000003          1.4729471864427524E-008
  0.22760000000000002          2.2583362735417722E-008
  0.22870000000000001          3.0429394115571995E-008
  0.22980000000000000          3.7821369147650330E-008
  0.23090000000000005          4.4133724230732696E-008
  0.23200000000000004          4.8540524488771553E-008
  0.23310000000000003          5.0023341913174590E-008
  0.23420000000000002          4.7388269308612507E-008
  0.23530000000000001          3.9261660589318126E-008
  0.23640000000000000          2.4035056611637629E-008
  0.23750000000000004         -2.5712718065840079E-010
  0.23860000000000003         -3.6121953428391862E-008
  0.23970000000000002         -8.6826887013558007E-008
  0.24080000000000001         -1.5661117913623457E-007
  0.24190000000000000         -2.5084983690248919E-007
  0.24300000000000005         -3.7614853454215336E-007
  0.24410000000000004         -5.4038144980950165E-007
  0.24520000000000003         -7.5272203048371011E-007
  0.24630000000000002         -1.0237437209070777E-006
  0.24740000000000001         -1.3656821238328121E-006
  0.24850000000000005         -1.7929301066033076E-006
  0.24960000000000004         -2.3228053578350227E-006
  0.25070000000000003         -2.9765717499685707E-006
  0.25180000000000002         -3.7806526052008849E-006
  0.25290000000000001         -4.7679454837634694E-006
  0.25400000000000000         -5.9791468629555311E-006
  0.25510000000000005         -7.4640342972998042E-006
  0.25620000000000004         -9.2827222033520229E-006
  0.25730000000000003         -1.1506953342177439E-005
  0.25840000000000002         -1.4221576748241205E-005
  0.25950000000000001         -1.7526352166896686E-005
  0.26060000000000005         -2.1538202418014407E-005
  0.26170000000000004         -2.6393976440886036E-005
  0.26280000000000003         -3.2253719837171957E-005
  0.26390000000000002         -3.9304341044044122E-005
  0.26500000000000001         -4.7763602196937427E-005
  0.26610000000000000         -5.7884255511453375E-005
  0.26720000000000005         -6.9958303356543183E-005
  0.26830000000000004         -8.4321400208864361E-005
  0.26940000000000003         -1.0135743650607765E-004
  0.27050000000000002         -1.2150339898653328E-004
  0.27160000000000001         -1.4525471488013864E-004
  0.27270000000000005         -1.7317099263891578E-004
  0.27380000000000004         -2.0588214101735502E-004
  0.27490000000000003         -2.4409475736320019E-004
  0.27600000000000002         -2.8859835583716631E-004
  0.27710000000000001         -3.4027133369818330E-004
  0.27820000000000000         -4.0008610812947154E-004
  0.27930000000000005         -4.6911361278034747E-004
  0.28040000000000004         -5.4852652829140425E-004
  0.28150000000000003         -6.3960155239328742E-004
  0.28260000000000002         -7.4372033122926950E-004
  0.28370000000000001         -8.6236937204375863E-004
  0.28480000000000005         -9.9713820964097977E-004
  0.28590000000000004         -1.1497159721329808E-003
  0.28700000000000003         -1.3218852691352367E-003
  0.28810000000000002         -1.5155139844864607E-003
  0.28920000000000001         -1.7325426451861858E-003
  0.29030000000000000         -1.9749691709876060E-003
  0.29140000000000005         -2.2448287345468998E-003
  0.29250000000000004         -2.5441697798669338E-003
  0.29360000000000003         -2.8750265482813120E-003
  0.29470000000000002         -3.2393864821642637E-003
  0.29580000000000001         -3.6391553003340960E-003
  0.29690000000000005         -4.0761171840131283E-003
  0.29800000000000004         -4.5518921688199043E-003
  0.29910000000000003         -5.0678881816565990E-003
  0.30020000000000002         -5.6252526119351387E-003
  0.30130000000000001         -6.2248157337307930E-003
  0.30240000000000000         -6.8670362234115601E-003
  0.30350000000000005         -7.5519410893321037E-003
  0.30460000000000004         -8.2790665328502655E-003
  0.30570000000000003         -9.0473974123597145E-003
  0.30680000000000002         -9.8553085699677467E-003
  0.30790000000000001         -1.0700511746108532E-002
  0.30900000000000005         -1.1580006219446659E-002
  0.31010000000000004         -1.2490031309425831E-002
  0.31120000000000003         -1.3426030054688454E-002
  0.31230000000000002         -1.4382624067366123E-002
  0.31340000000000001         -1.5353592112660408E-002
  0.31450000000000006         -1.6331866383552551E-002
  0.31560000000000005         -1.7309537157416344E-002
  0.31670000000000004         -1.8277872353792191E-002
  0.31780000000000003         -1.9227353855967522E-002
  0.31890000000000002         -2.0147731527686119E-002
  0.32000000000000001         -2.1028095856308937E-002
  0.32110000000000005         -2.1856963634490967E-002
  0.32220000000000004         -2.2622385993599892E-002
  0.32330000000000003         -2.3312069475650787E-002
  0.32440000000000002         -2.3913519456982613E-002
  0.32550000000000001         -2.4414192885160446E-002
  0.32660000000000006         -2.4801664054393768E-002
  0.32770000000000005         -2.5063807144761086E-002
  0.32880000000000004         -2.5188986212015152E-002
  0.32990000000000003         -2.5166250765323639E-002
  0.33100000000000002         -2.4985527619719505E-002
  0.33210000000000001         -2.4637822061777115E-002
  0.33320000000000005         -2.4115409702062607E-002
  0.33430000000000004         -2.3412028327584267E-002
  0.33540000000000003         -2.2523056715726852E-002
  0.33650000000000002         -2.1445667371153831E-002
  0.33760000000000001         -2.0178966224193573E-002
  0.33870000000000006         -1.8724108114838600E-002
  0.33980000000000005         -1.7084380611777306E-002
  0.34090000000000004         -1.5265271067619324E-002
  0.34200000000000003         -1.3274492695927620E-002
  0.34310000000000002         -1.1121980845928192E-002
  0.34420000000000001         -8.8198482990264893E-003
  0.34530000000000005         -6.3823056407272816E-003
  0.34640000000000004         -3.8255474064499140E-003
  0.34750000000000003         -1.1676003923639655E-003
  0.34860000000000002          1.5718599315732718E-003
  0.34970000000000001          4.3717217631638050E-003
  0.35080000000000006          7.2096791118383408E-003
  0.35190000000000005          1.0062498040497303E-002
  0.35300000000000004          1.2906308285892010E-002
  0.35410000000000003          1.5716906636953354E-002
  0.35520000000000002          1.8470080569386482E-002
  0.35630000000000001          2.1141931414604187E-002
  0.35740000000000005          2.3709187284111977E-002
  0.35850000000000004          2.6149524375796318E-002
  0.35960000000000003          2.8441861271858215E-002
  0.36070000000000002          3.0566634610295296E-002
  0.36180000000000001          3.2506067305803299E-002
  0.36290000000000006          3.4244410693645477E-002
  0.36400000000000005          3.5768121480941772E-002
  0.36510000000000004          3.7066057324409485E-002
  0.36620000000000003          3.8129586726427078E-002
  0.36730000000000002          3.8952685892581940E-002
  0.36840000000000006          3.9531987160444260E-002
  0.36950000000000005          3.9866775274276733E-002
  0.37060000000000004          3.9958946406841278E-002
  0.37170000000000003          3.9812944829463959E-002
  0.37280000000000002          3.9435636252164841E-002
  0.37390000000000001          3.8836181163787842E-002
  0.37500000000000006          3.8025844842195511E-002
  0.37610000000000005          3.7017785012722015E-002
  0.37720000000000004          3.5826824605464935E-002
  0.37830000000000003          3.4469209611415863E-002
  0.37940000000000002          3.2962337136268616E-002
  0.38050000000000006          3.1324498355388641E-002
  0.38160000000000005          2.9574584215879440E-002
  0.38270000000000004          2.7731843292713165E-002
  0.38380000000000003          2.5815602391958237E-002
  0.38490000000000002          2.3845020681619644E-002
  0.38600000000000001          2.1838849410414696E-002
  0.38710000000000000          1.9815221428871155E-002
  0.38819999999999999          1.7791444435715675E-002
  0.38930000000000009          1.5783835202455521E-002
  0.39040000000000008          1.3807563111186028E-002
  0.39150000000000007          1.1876528151333332E-002
  0.39260000000000006          1.0003269650042057E-002
  0.39370000000000005          8.1989029422402382E-003
  0.39480000000000004          6.4730732701718807E-003
  0.39590000000000003          4.8339441418647766E-003
  0.39700000000000002          3.2881980296224356E-003
  0.39810000000000001          1.8410625634714961E-003
  0.39920000000000000          4.9635337200015783E-004
  0.40029999999999999         -7.4346188921481371E-004
  0.40140000000000009         -1.8771818140521646E-003
  0.40250000000000008         -2.9047746211290359E-003
  0.40360000000000007         -3.8272722158581018E-003
  0.40470000000000006         -4.6466593630611897E-003
  0.40580000000000005         -5.3657623939216137E-003
  0.40690000000000004         -5.9881433844566345E-003
  0.40800000000000003         -6.5179900266230106E-003
  0.40910000000000002         -6.9600110873579979E-003
  0.41020000000000001         -7.3193311691284180E-003
  0.41130000000000000         -7.6013864018023014E-003
  0.41239999999999999         -7.8118252567946911E-003
  0.41350000000000009         -7.9564163461327553E-003
  0.41460000000000008         -8.0409655347466469E-003
  0.41570000000000007         -8.0712446942925453E-003
  0.41680000000000006         -8.0529274418950081E-003
  0.41790000000000005         -7.9915374517440796E-003
  0.41900000000000004         -7.8924046829342842E-003
  0.42010000000000003         -7.7606281265616417E-003
  0.42120000000000002         -7.6010460034012794E-003
  0.42230000000000001         -7.4182129465043545E-003
  0.42340000000000000         -7.2163813747465611E-003
  0.42449999999999999         -6.9994893856346607E-003
  0.42560000000000009         -6.7711547017097473E-003
  0.42670000000000008         -6.5346681512892246E-003
  0.42780000000000007         -6.2929983250796795E-003
  0.42890000000000006         -6.0487953014671803E-003
  0.43000000000000005         -5.8043990284204483E-003
  0.43110000000000004         -5.5618542246520519E-003
  0.43220000000000003         -5.3229206241667271E-003
  0.43330000000000002         -5.0890897400677204E-003
  0.43440000000000001         -4.8615983687341213E-003
  0.43550000000000000         -4.6414439566433430E-003
  0.43659999999999999         -4.4294050894677639E-003
  0.43770000000000009         -4.2260596528649330E-003
  0.43880000000000008         -4.0318062528967857E-003
  0.43990000000000007         -3.8468826096504927E-003
  0.44100000000000006         -3.6713806912302971E-003
  0.44210000000000005         -3.5052590537816286E-003
  0.44320000000000004         -3.3483551815152168E-003
  0.44430000000000003         -3.2004003878682852E-003
  0.44540000000000002         -3.0610372778028250E-003
  0.44650000000000001         -2.9298434965312481E-003
  0.44760000000000000         -2.8063531499356031E-003
  0.44869999999999999         -2.6900768280029297E-003
  0.44980000000000009         -2.5805158074945211E-003
  0.45090000000000008         -2.4771713651716709E-003
  0.45200000000000007         -2.3795494344085455E-003
  0.45310000000000006         -2.2871647961437702E-003
  0.45420000000000005         -2.1995489951223135E-003
  0.45530000000000004         -2.1162587217986584E-003
  0.45640000000000003         -2.0368879195302725E-003
  0.45750000000000002         -1.9610761664807796E-003
  0.45860000000000001         -1.8885150784626603E-003
  0.45970000000000000         -1.8189494730904698E-003
  0.46079999999999999         -1.7521748086437583E-003
  0.46190000000000009         -1.6880341572687030E-003
  0.46300000000000008         -1.6264134319499135E-003
  0.46410000000000007         -1.5672383597120643E-003
  0.46520000000000006         -1.5104699414223433E-003
  0.46630000000000005         -1.4561000280082226E-003
  0.46740000000000004         -1.4041452668607235E-003
  0.46850000000000003         -1.3546393020078540E-003
  0.46960000000000002         -1.3076253235340118E-003
  0.47070000000000001         -1.2631476856768131E-003
  0.47180000000000000         -1.2212434085085988E-003
  0.47289999999999999         -1.1819344945251942E-003
  0.47400000000000009         -1.1452216422185302E-003
  0.47510000000000008         -1.1110790073871613E-003
  0.47620000000000007         -1.0794525733217597E-003
  0.47730000000000006         -1.0502608492970467E-003
  0.47840000000000005         -1.0233984794467688E-003