 -0.12000000000000000          0.0000000000000000     
 -0.11889999999999999          0.0000000000000000     
 -0.11780000000000000          0.0000000000000000     
 -0.11670000000000000          0.0000000000000000     
 -0.11559999999999999          0.0000000000000000     
 -0.11449999999999999          0.0000000000000000     
 -0.11340000000000000          0.0000000000000000     
 -0.11230000000000000          0.0000000000000000     
 -0.11119999999999999          0.0000000000000000     
 -0.11009999999999999          0.0000000000000000     
 -0.10900000000000000          0.0000000000000000     
 -0.10790000000000000          0.0000000000000000     
 -0.10679999999999999          0.0000000000000000     
 -0.10569999999999999          0.0000000000000000     
 -0.10460000000000000          0.0000000000000000     
 -0.10349999999999999          0.0000000000000000     
 -0.10239999999999999          0.0000000000000000     
 -0.10130000000000000          0.0000000000000000     
 -0.10020000000000000          0.0000000000000000     
  -9.9099999999999994E-002     0.0000000000000000     
  -9.7999999999999990E-002     0.0000000000000000     
  -9.6899999999999986E-002     0.0000000000000000     
  -9.5799999999999996E-002     0.0000000000000000     
  -9.4699999999999993E-002     0.0000000000000000     
  -9.3599999999999989E-002     0.0000000000000000     
  -9.2499999999999999E-002     0.0000000000000000     
  -9.1399999999999995E-002     0.0000000000000000     
  -9.0299999999999991E-002     0.0000000000000000     
  -8.9200000000000002E-002     0.0000000000000000     
  -8.8099999999999984E-002     0.0000000000000000     
  -8.6999999999999994E-002     0.0000000000000000     
  -8.5899999999999990E-002     0.0000000000000000     
  -8.4799999999999986E-002     0.0000000000000000     
  -8.3699999999999997E-002     0.0000000000000000     
  -8.2599999999999993E-002     0.0000000000000000     
  -8.1499999999999989E-002     0.0000000000000000     
  -8.0399999999999999E-002     0.0000000000000000     
  -7.9299999999999995E-002     0.0000000000000000     
  -7.8199999999999992E-002     0.0000000000000000     
  -7.7100000000000002E-002     0.0000000000000000     
  -7.5999999999999984E-002     0.0000000000000000     
  -7.4899999999999994E-002     0.0000000000000000     
  -7.3799999999999991E-002     0.0000000000000000     
  -7.2699999999999987E-002     0.0000000000000000     
  -7.1599999999999997E-002     0.0000000000000000     
  -7.0499999999999993E-002     0.0000000000000000     
  -6.9399999999999989E-002     0.0000000000000000     
  -6.8300000000000000E-002     0.0000000000000000     
  -6.7199999999999996E-002     0.0000000000000000     
  -6.6099999999999992E-002     0.0000000000000000     
  -6.5000000000000002E-002     0.0000000000000000     
  -6.3899999999999985E-002     0.0000000000000000     
  -6.2799999999999995E-002     0.0000000000000000     
  -6.1699999999999991E-002     0.0000000000000000     
  -6.0599999999999994E-002     0.0000000000000000     
  -5.9499999999999990E-002     0.0000000000000000     
  -5.8399999999999994E-002     0.0000000000000000     
  -5.7299999999999990E-002     0.0000000000000000     
  -5.6199999999999986E-002     0.0000000000000000     
  -5.5099999999999996E-002     0.0000000000000000     
  -5.3999999999999992E-002     0.0000000000000000     
  -5.2899999999999989E-002     0.0000000000000000     
  -5.1799999999999985E-002     0.0000000000000000     
  -5.0699999999999995E-002     0.0000000000000000     
  -4.9599999999999991E-002     0.0000000000000000     
  -4.8499999999999988E-002     0.0000000000000000     
  -4.7399999999999998E-002     0.0000000000000000     
  -4.6299999999999994E-002     0.0000000000000000     
  -4.5199999999999990E-002     0.0000000000000000     
  -4.4099999999999986E-002     0.0000000000000000     
  -4.2999999999999997E-002     0.0000000000000000     
  -4.1899999999999993E-002     0.0000000000000000     
  -4.0799999999999989E-002     0.0000000000000000     
  -3.9699999999999985E-002     0.0000000000000000     
  -3.8599999999999995E-002     0.0000000000000000     
  -3.7499999999999992E-002     0.0000000000000000     
  -3.6399999999999988E-002     0.0000000000000000     
  -3.5299999999999984E-002     0.0000000000000000     
  -3.4199999999999994E-002     0.0000000000000000     
  -3.3099999999999991E-002     0.0000000000000000     
  -3.1999999999999987E-002     0.0000000000000000     
  -3.0899999999999997E-002     0.0000000000000000     
  -2.9799999999999993E-002     0.0000000000000000     
  -2.8699999999999989E-002     0.0000000000000000     
  -2.7599999999999986E-002     0.0000000000000000     
  -2.6499999999999996E-002     0.0000000000000000     
  -2.5399999999999992E-002     0.0000000000000000     
  -2.4299999999999988E-002     0.0000000000000000     
  -2.3199999999999985E-002     0.0000000000000000     
  -2.2099999999999995E-002     0.0000000000000000     
  -2.0999999999999991E-002     0.0000000000000000     
  -1.9899999999999987E-002     0.0000000000000000     
  -1.8799999999999983E-002     0.0000000000000000     
  -1.7699999999999994E-002     0.0000000000000000     
  -1.6599999999999990E-002     0.0000000000000000     
  -1.5499999999999986E-002     0.0000000000000000     
  -1.4399999999999996E-002     0.0000000000000000     
  -1.3299999999999992E-002     0.0000000000000000     
  -1.2199999999999989E-002     0.0000000000000000     
  -1.1099999999999985E-002     0.0000000000000000     
  -9.9999999999999950E-003     0.0000000000000000     
  -8.8999999999999913E-003     0.0000000000000000     
  -7.7999999999999875E-003     0.0000000000000000     
  -6.6999999999999837E-003     0.0000000000000000     
  -5.5999999999999939E-003     0.0000000000000000     
  -4.4999999999999901E-003     0.0000000000000000     
  -3.3999999999999864E-003     0.0000000000000000     
  -2.2999999999999826E-003     0.0000000000000000     
  -1.1999999999999927E-003     0.0000000000000000     
  -9.9999999999988987E-005     0.0000000000000000     
   1.0000000000000148E-003     0.0000000000000000     
   2.1000000000000185E-003     0.0000000000000000     
   3.2000000000000084E-003     0.0000000000000000     
   4.3000000000000121E-003     0.0000000000000000     
   5.4000000000000159E-003     0.0000000000000000     
   6.5000000000000058E-003     0.0000000000000000     
   7.6000000000000234E-003     0.0000000000000000     
   8.7000000000000133E-003     0.0000000000000000     
   9.8000000000000032E-003     0.0000000000000000     
   1.0900000000000021E-002     0.0000000000000000     
   1.2000000000000011E-002     0.0000000000000000     
   1.3100000000000001E-002     0.0000000000000000     
   1.4200000000000018E-002     0.0000000000000000     
   1.5300000000000008E-002     0.0000000000000000     
   1.6400000000000026E-002     0.0000000000000000     
   1.7500000000000016E-002     0.0000000000000000     
   1.8600000000000005E-002     0.0000000000000000     
   1.9700000000000023E-002     0.0000000000000000     
   2.0800000000000013E-002     0.0000000000000000     
   2.1900000000000003E-002     0.0000000000000000     
   2.3000000000000020E-002     0.0000000000000000     
   2.4100000000000010E-002     0.0000000000000000     
   2.5200000000000000E-002     0.0000000000000000     
   2.6300000000000018E-002     0.0000000000000000     
   2.7400000000000008E-002     0.0000000000000000     
   2.8500000000000025E-002     0.0000000000000000     
   2.9600000000000015E-002     0.0000000000000000     
   3.0700000000000005E-002     0.0000000000000000     
   3.1800000000000023E-002     0.0000000000000000     
   3.2900000000000013E-002     0.0000000000000000     
   3.4000000000000002E-002     0.0000000000000000     
   3.5100000000000020E-002     0.0000000000000000     
   3.6200000000000010E-002     0.0000000000000000     
   3.7300000000000028E-002     0.0000000000000000     
   3.8400000000000017E-002     0.0000000000000000     
   3.9500000000000007E-002     0.0000000000000000     
   4.0600000000000025E-002     0.0000000000000000     
   4.1700000000000015E-002     0.0000000000000000     
   4.2800000000000005E-002     0.0000000000000000     
   4.3900000000000022E-002     0.0000000000000000     
   4.5000000000000012E-002     0.0000000000000000     
   4.6100000000000002E-002     0.0000000000000000     
   4.7200000000000020E-002     0.0000000000000000     
   4.8300000000000010E-002     0.0000000000000000     
   4.9400000000000027E-002     0.0000000000000000     
   5.0500000000000017E-002     0.0000000000000000     
   5.1600000000000007E-002     0.0000000000000000     
   5.2700000000000025E-002     0.0000000000000000     
   5.3800000000000014E-002     0.0000000000000000     
   5.4900000000000004E-002     0.0000000000000000     
   5.6000000000000022E-002     0.0000000000000000     
   5.7100000000000012E-002     0.0000000000000000     
   5.8200000000000002E-002     0.0000000000000000     
   5.9300000000000019E-002     0.0000000000000000     
   6.0400000000000009E-002     0.0000000000000000     
   6.1500000000000027E-002     0.0000000000000000     
   6.2600000000000017E-002     0.0000000000000000     
   6.3700000000000007E-002     0.0000000000000000     
   6.4800000000000024E-002     0.0000000000000000     
   6.5900000000000014E-002     0.0000000000000000     
   6.7000000000000004E-002     0.0000000000000000     
   6.8100000000000022E-002     0.0000000000000000     
   6.9200000000000012E-002     0.0000000000000000     
   7.0300000000000029E-002     0.0000000000000000     
   7.1400000000000019E-002     0.0000000000000000     
   7.2500000000000009E-002     0.0000000000000000     
   7.3600000000000027E-002     0.0000000000000000     
   7.4700000000000016E-002     0.0000000000000000     
   7.5800000000000006E-002     0.0000000000000000     
   7.6900000000000024E-002     0.0000000000000000     
   7.8000000000000014E-002     0.0000000000000000     
   7.9100000000000004E-002     0.0000000000000000     
   8.0200000000000021E-002     0.0000000000000000     
   8.1300000000000011E-002     0.0000000000000000     
   8.2400000000000029E-002     0.0000000000000000     
   8.3500000000000019E-002     0.0000000000000000     
   8.4600000000000009E-002     0.0000000000000000     
   8.5700000000000026E-002     0.0000000000000000     
   8.6800000000000016E-002     0.0000000000000000     
   8.7900000000000006E-002     0.0000000000000000     
   8.9000000000000024E-002     0.0000000000000000     
   9.0100000000000013E-002     0.0000000000000000     
   9.1200000000000003E-002     0.0000000000000000     
   9.2300000000000021E-002     0.0000000000000000     
   9.3400000000000011E-002     0.0000000000000000     
   9.4500000000000028E-002     0.0000000000000000     
   9.5600000000000018E-002     0.0000000000000000     
   9.6700000000000008E-002     0.0000000000000000     
   9.7800000000000026E-002     0.0000000000000000     
   9.8900000000000016E-002     0.0000000000000000     
  0.10000000000000001          0.0000000000000000     
  0.10110000000000002          0.0000000000000000     
  0.10220000000000001          0.0000000000000000     
  0.10330000000000003          0.0000000000000000     
  0.10440000000000002          0.0000000000000000     
  0.10550000000000001          0.0000000000000000     
  0.10660000000000003          0.0000000000000000     
  0.10770000000000002          0.0000000000000000     
  0.10880000000000001          0.0000000000000000     
  0.10990000000000003          0.0000000000000000     
  0.11100000000000002          0.0000000000000000     
  0.11210000000000001          0.0000000000000000     
  0.11320000000000002          0.0000000000000000     
  0.11430000000000001          0.0000000000000000     
  0.11540000000000003          0.0000000000000000     
  0.11650000000000002          0.0000000000000000     
  0.11760000000000001          0.0000000000000000     
  0.11870000000000003          0.0000000000000000     
  0.11980000000000002          0.0000000000000000     
  0.12090000000000001          0.0000000000000000     
  0.12200000000000003          0.0000000000000000     
  0.12310000000000001          0.0000000000000000     
  0.12420000000000003          0.0000000000000000     
  0.12530000000000002          0.0000000000000000     
  0.12640000000000001          0.0000000000000000     
  0.12750000000000003          0.0000000000000000     
  0.12860000000000002          0.0000000000000000     
  0.12970000000000001          0.0000000000000000     
  0.13080000000000003          0.0000000000000000     
  0.13190000000000002          0.0000000000000000     
  0.13300000000000001          0.0000000000000000     
  0.13410000000000000          0.0000000000000000     
  0.13520000000000004          0.0000000000000000     
  0.13630000000000003          0.0000000000000000     
  0.13740000000000002          0.0000000000000000     
  0.13850000000000001          0.0000000000000000     
  0.13960000000000000          0.0000000000000000     
  0.14070000000000005          0.0000000000000000     
  0.14180000000000004          0.0000000000000000     
  0.14290000000000003          0.0000000000000000     
  0.14400000000000002          0.0000000000000000     
  0.14510000000000001          0.0000000000000000     
  0.14620000000000000          0.0000000000000000     
  0.14730000000000004          0.0000000000000000     
  0.14840000000000003          0.0000000000000000     
  0.14950000000000002          0.0000000000000000     
  0.15060000000000001          0.0000000000000000     
  0.15170000000000000          0.0000000000000000     
  0.15280000000000005          0.0000000000000000     
  0.15390000000000004          0.0000000000000000     
  0.15500000000000003          0.0000000000000000     
  0.15610000000000002          0.0000000000000000     
  0.15720000000000001          0.0000000000000000     
  0.15830000000000000          0.0000000000000000     
  0.15940000000000004          0.0000000000000000     
  0.16050000000000003          0.0000000000000000     
  0.16160000000000002          0.0000000000000000     
  0.16270000000000001          0.0000000000000000     
  0.16380000000000000          0.0000000000000000     
  0.16490000000000005          0.0000000000000000     
  0.16600000000000004          0.0000000000000000     
  0.16710000000000003          0.0000000000000000     
  0.16820000000000002          0.0000000000000000     
  0.16930000000000001          0.0000000000000000     
  0.17040000000000000          0.0000000000000000     
  0.17150000000000004          0.0000000000000000     
  0.17260000000000003          0.0000000000000000     
  0.17370000000000002          0.0000000000000000     
  0.17480000000000001          0.0000000000000000     
  0.17590000000000000          0.0000000000000000     
  0.17700000000000005          0.0000000000000000     
  0.17810000000000004          0.0000000000000000     
  0.17920000000000003          0.0000000000000000     
  0.18030000000000002          0.0000000000000000     
  0.18140000000000001          0.0000000000000000     
  0.18250000000000000          0.0000000000000000     
  0.18360000000000004          0.0000000000000000     
  0.18470000000000003          0.0000000000000000     
  0.18580000000000002          0.0000000000000000     
  0.18690000000000001          0.0000000000000000     
  0.18800000000000000          0.0000000000000000     
  0.18910000000000005          0.0000000000000000     
  0.19020000000000004          0.0000000000000000     
  0.19130000000000003          0.0000000000000000     
  0.19240000000000002          0.0000000000000000     
  0.19350000000000001          0.0000000000000000     
  0.19460000000000005          0.0000000000000000     
  0.19570000000000004          0.0000000000000000     
  0.19680000000000003          0.0000000000000000     
  0.19790000000000002          0.0000000000000000     
  0.19900000000000001          0.0000000000000000     
  0.20010000000000000          0.0000000000000000     
  0.20120000000000005          0.0000000000000000     
  0.20230000000000004          0.0000000000000000     
  0.20340000000000003          0.0000000000000000     
  0.20450000000000002          0.0000000000000000     
  0.20560000000000000          0.0000000000000000     
  0.20670000000000005          0.0000000000000000     
  0.20780000000000004          0.0000000000000000     
  0.20890000000000003          0.0000000000000000     
  0.21000000000000002          0.0000000000000000     
  0.21110000000000001          0.0000000000000000     
  0.21220000000000000          0.0000000000000000     
  0.21330000000000005          0.0000000000000000     
  0.21440000000000003          0.0000000000000000     
  0.21550000000000002          0.0000000000000000     
  0.21660000000000001          0.0000000000000000     
  0.21770000000000000          0.0000000000000000     
  0.21880000000000005          0.0000000000000000     
  0.21990000000000004          0.0000000000000000     
  0.22100000000000003          0.0000000000000000     
  0.22210000000000002          0.0000000000000000     
  0.22320000000000001          0.0000000000000000     
  0.22430000000000000          0.0000000000000000     
  0.22540000000000004          0.0000000000000000     
  0.22650000000000003          0.0000000000000000     
  0.22760000000000002          0.0000000000000000     
  0.22870000000000001          0.0000000000000000     
  0.22980000000000000          0.0000000000000000     
  0.23090000000000005          0.0000000000000000     
  0.23200000000000004          0.0000000000000000     
  0.23310000000000003          0.0000000000000000     
  0.23420000000000002          0.0000000000000000     
  0.23530000000000001          0.0000000000000000     
  0.23640000000000000          0.0000000000000000     
  0.23750000000000004          0.0000000000000000     
  0.23860000000000003          0.0000000000000000     
  0.23970000000000002          0.0000000000000000     
  0.24080000000000001          0.0000000000000000     
  0.24190000000000000          0.0000000000000000     
  0.24300000000000005          0.0000000000000000     
  0.24410000000000004          0.0000000000000000     
  0.24520000000000003          0.0000000000000000     
  0.24630000000000002          0.0000000000000000     
  0.24740000000000001          0.0000000000000000     
  0.24850000000000005          0.0000000000000000     
  0.24960000000000004          0.0000000000000000     
  0.25070000000000003          0.0000000000000000     
  0.25180000000000002          0.0000000000000000     
  0.25290000000000001          0.0000000000000000     
  0.25400000000000000          0.0000000000000000     
  0.25510000000000005          0.0000000000000000     
  0.25620000000000004          0.0000000000000000     
  0.25730000000000003          0.0000000000000000     
  0.25840000000000002          0.0000000000000000     
  0.25950000000000001          0.0000000000000000     
  0.26060000000000005          0.0000000000000000     
  0.26170000000000004          0.0000000000000000     
  0.26280000000000003          0.0000000000000000     
  0.26390000000000002          0.0000000000000000     
  0.26500000000000001          0.0000000000000000     
  0.26610000000000000          0.0000000000000000     
  0.26720000000000005          0.0000000000000000     
  0.26830000000000004          0.0000000000000000     
  0.26940000000000003          0.0000000000000000     
  0.27050000000000002          0.0000000000000000     
  0.27160000000000001          0.0000000000000000     
  0.27270000000000005          0.0000000000000000     
  0.27380000000000004          0.0000000000000000     
  0.27490000000000003          0.0000000000000000     
  0.27600000000000002          0.0000000000000000     
  0.27710000000000001          0.0000000000000000     
  0.27820000000000000          0.0000000000000000     
  0.27930000000000005          0.0000000000000000     
  0.28040000000000004          0.0000000000000000     
  0.28150000000000003          0.0000000000000000     
  0.28260000000000002          0.0000000000000000     
  0.28370000000000001          0.0000000000000000     
  0.28480000000000005          0.0000000000000000     
  0.28590000000000004          0.0000000000000000     
  0.28700000000000003          0.0000000000000000     
  0.28810000000000002          0.0000000000000000     
  0.28920000000000001          0.0000000000000000     
  0.29030000000000000          0.0000000000000000     
  0.29140000000000005          0.0000000000000000     
  0.29250000000000004          0.0000000000000000     
  0.29360000000000003          0.0000000000000000     
  0.29470000000000002          0.0000000000000000     
  0.29580000000000001          0.0000000000000000     
  0.29690000000000005          0.0000000000000000     
  0.29800000000000004          0.0000000000000000     
  0.29910000000000003          0.0000000000000000     
  0.30020000000000002          0.0000000000000000     
  0.30130000000000001          0.0000000000000000     
  0.30240000000000000          0.0000000000000000     
  0.30350000000000005          0.0000000000000000     
  0.30460000000000004          0.0000000000000000     
  0.30570000000000003          0.0000000000000000     
  0.30680000000000002          0.0000000000000000     
  0.30790000000000001          0.0000000000000000     
  0.30900000000000005          0.0000000000000000     
  0.31010000000000004          0.0000000000000000     
  0.31120000000000003          0.0000000000000000     
  0.31230000000000002          0.0000000000000000     
  0.31340000000000001          0.0000000000000000     
  0.31450000000000006          0.0000000000000000     
  0.31560000000000005          0.0000000000000000     
  0.31670000000000004          0.0000000000000000     
  0.31780000000000003          0.0000000000000000     
  0.31890000000000002          0.0000000000000000     
  0.32000000000000001          0.0000000000000000     
  0.32110000000000005          0.0000000000000000     
  0.32220000000000004          0.0000000000000000     
  0.32330000000000003          0.0000000000000000     
  0.32440000000000002          0.0000000000000000     
  0.32550000000000001          0.0000000000000000     
  0.32660000000000006          0.0000000000000000     
  0.32770000000000005          0.0000000000000000     
  0.32880000000000004          0.0000000000000000     
  0.32990000000000003          0.0000000000000000     
  0.33100000000000002          0.0000000000000000     
  0.33210000000000001          0.0000000000000000     
  0.33320000000000005          0.0000000000000000     
  0.33430000000000004          0.0000000000000000     
  0.33540000000000003          0.0000000000000000     
  0.33650000000000002          0.0000000000000000     
  0.33760000000000001          0.0000000000000000     
  0.33870000000000006          0.0000000000000000     
  0.33980000000000005          0.0000000000000000     
  0.34090000000000004          0.0000000000000000     
  0.34200000000000003          0.0000000000000000     
  0.34310000000000002          0.0000000000000000     
  0.34420000000000001          0.0000000000000000     
  0.34530000000000005          0.0000000000000000     
  0.34640000000000004          0.0000000000000000     
  0.34750000000000003          0.0000000000000000     
  0.34860000000000002          0.0000000000000000     
  0.34970000000000001          0.0000000000000000     
  0.35080000000000006          0.0000000000000000     
  0.35190000000000005          0.0000000000000000     
  0.35300000000000004          0.0000000000000000     
  0.35410000000000003          0.0000000000000000     
  0.35520000000000002          0.0000000000000000     
  0.35630000000000001          0.0000000000000000     
  0.35740000000000005          0.0000000000000000     
  0.35850000000000004          0.0000000000000000     
  0.35960000000000003          0.0000000000000000     
  0.36070000000000002          0.0000000000000000     
  0.36180000000000001          0.0000000000000000     
  0.36290000000000006          0.0000000000000000     
  0.36400000000000005          0.0000000000000000     
  0.36510000000000004          0.0000000000000000     
  0.36620000000000003          0.0000000000000000     
  0.36730000000000002          0.0000000000000000     
  0.36840000000000006          0.0000000000000000     
  0.36950000000000005          0.0000000000000000     
  0.37060000000000004          0.0000000000000000     
  0.37170000000000003          0.0000000000000000     
  0.37280000000000002          0.0000000000000000     
  0.37390000000000001          0.0000000000000000     
  0.37500000000000006          0.0000000000000000     
  0.37610000000000005          0.0000000000000000     
  0.37720000000000004          0.0000000000000000     
  0.37830000000000003          0.0000000000000000     
  0.37940000000000002          0.0000000000000000     
  0.38050000000000006          0.0000000000000000     
  0.38160000000000005          0.0000000000000000     
  0.38270000000000004          0.0000000000000000     
  0.38380000000000003          0.0000000000000000     
  0.38490000000000002          0.0000000000000000     
  0.38600000000000001          0.0000000000000000     
  0.38710000000000000          0.0000000000000000     
  0.38819999999999999          0.0000000000000000     
  0.38930000000000009          0.0000000000000000     
  0.39040000000000008          0.0000000000000000     
  0.39150000000000007          0.0000000000000000     
  0.39260000000000006          0.0000000000000000     
  0.39370000000000005          0.0000000000000000     
  0.39480000000000004          0.0000000000000000     
  0.39590000000000003          0.0000000000000000     
  0.39700000000000002          0.0000000000000000     
  0.39810000000000001          0.0000000000000000     
  0.39920000000000000          0.0000000000000000     
  0.40029999999999999          0.0000000000000000     
  0.40140000000000009          0.0000000000000000     
  0.40250000000000008          0.0000000000000000     
  0.40360000000000007          0.0000000000000000     
  0.40470000000000006          0.0000000000000000     
  0.40580000000000005          0.0000000000000000     
  0.40690000000000004          0.0000000000000000     
  0.40800000000000003          0.0000000000000000     
  0.40910000000000002          0.0000000000000000     
  0.41020000000000001          0.0000000000000000     
  0.41130000000000000          0.0000000000000000     
  0.41239999999999999          0.0000000000000000     
  0.41350000000000009          0.0000000000000000     
  0.41460000000000008          0.0000000000000000     
  0.41570000000000007          0.0000000000000000     
  0.41680000000000006          0.0000000000000000     
  0.41790000000000005          0.0000000000000000     
  0.41900000000000004          0.0000000000000000     
  0.42010000000000003          0.0000000000000000     
  0.42120000000000002          0.0000000000000000     
  0.42230000000000001          0.0000000000000000     
  0.42340000000000000          0.0000000000000000     
  0.42449999999999999          0.0000000000000000     
  0.42560000000000009          0.0000000000000000     
  0.42670000000000008          0.0000000000000000     
  0.42780000000000007          0.0000000000000000     
  0.42890000000000006          0.0000000000000000     
  0.43000000000000005          0.0000000000000000     
  0.43110000000000004          0.0000000000000000     
  0.43220000000000003          0.0000000000000000     
  0.43330000000000002          0.0000000000000000     
  0.43440000000000001          0.0000000000000000     
  0.43550000000000000          0.0000000000000000     
  0.43659999999999999          0.0000000000000000     
  0.43770000000000009          0.0000000000000000     
  0.43880000000000008          0.0000000000000000     
  0.43990000000000007          0.0000000000000000     
  0.44100000000000006          0.0000000000000000     
  0.44210000000000005          0.0000000000000000     
  0.44320000000000004          0.0000000000000000     
  0.44430000000000003          0.0000000000000000     
  0.44540000000000002          0.0000000000000000     
  0.44650000000000001          0.0000000000000000     
  0.44760000000000000          0.0000000000000000     
  0.44869999999999999          0.0000000000000000     
  0.44980000000000009          0.0000000000000000     
  0.45090000000000008          0.0000000000000000     
  0.45200000000000007          0.0000000000000000     
  0.45310000000000006          0.0000000000000000     
  0.45420000000000005          0.0000000000000000     
  0.45530000000000004          0.0000000000000000     
  0.45640000000000003          0.0000000000000000     
  0.45750000000000002          0.0000000000000000     
  0.45860000000000001          0.0000000000000000     
  0.45970000000000000          0.0000000000000000     
  0.46079999999999999          0.0000000000000000     
  0.46190000000000009          0.0000000000000000     
  0.46300000000000008          0.0000000000000000     
  0.46410000000000007          0.0000000000000000     
  0.46520000000000006          0.0000000000000000     
  0.46630000000000005          0.0000000000000000     
  0.46740000000000004          0.0000000000000000     
  0.46850000000000003          0.0000000000000000     
  0.46960000000000002          0.0000000000000000     
  0.47070000000000001          0.0000000000000000     
  0.47180000000000000          0.0000000000000000     
  0.47289999999999999          0.0000000000000000     
  0.47400000000000009          0.0000000000000000     
  0.47510000000000008          0.0000000000000000     
  0.47620000000000007          0.0000000000000000     
  0.47730000000000006          0.0000000000000000     
  0.47840000000000005          0.0000000000000000     