 -0.12000000000000000          0.0000000000000000     
 -0.11889999999999999          0.0000000000000000     
 -0.11780000000000000          0.0000000000000000     
 -0.11670000000000000          0.0000000000000000     
 -0.11559999999999999          0.0000000000000000     
 -0.11449999999999999          0.0000000000000000     
 -0.11340000000000000          0.0000000000000000     
 -0.11230000000000000          0.0000000000000000     
 -0.11119999999999999          0.0000000000000000     
 -0.11009999999999999          0.0000000000000000     
 -0.10900000000000000          0.0000000000000000     
 -0.10790000000000000          0.0000000000000000     
 -0.10679999999999999          2.9287137904388677E-042
 -0.10569999999999999         -7.6012033898835377E-041
 -0.10460000000000000          7.4606531539117586E-041
 -0.10349999999999999          6.4633630498364295E-039
 -0.10239999999999999          2.6953852647022996E-038
 -0.10130000000000000         -4.8739458718698630E-038
 -0.10020000000000000         -6.2073064719434072E-037
  -9.9099999999999994E-002    -7.0418247732074484E-037
  -9.7999999999999990E-002     1.0073636463717902E-035
  -9.6899999999999986E-002     5.7387949891662119E-035
  -9.5799999999999996E-002     1.1882563853402530E-034
  -9.4699999999999993E-002    -1.2326821509897918E-034
  -9.3599999999999989E-002    -1.4965909183249650E-033
  -9.2499999999999999E-002    -4.0782395295917049E-033
  -9.1399999999999995E-002    -1.9125035948489375E-033
  -9.0299999999999991E-002     2.4205152252022793E-032
  -8.9200000000000002E-002     9.5052442160527795E-032
  -8.8099999999999984E-002     1.5727646567250580E-031
  -8.6999999999999994E-002    -6.8561560245114265E-032
  -8.5899999999999990E-002    -1.1228871230015194E-030
  -8.4799999999999986E-002    -3.1520425865887001E-030
  -8.3699999999999997E-002    -3.9320139333310535E-030
  -8.2599999999999993E-002     3.5790033877452178E-030
  -8.1499999999999989E-002     2.9301525489613817E-029
  -8.0399999999999999E-002     7.0623568189719357E-029
  -7.9299999999999995E-002     7.9217115749823813E-029
  -7.8199999999999992E-002    -6.6599698682786800E-029
  -7.7100000000000002E-002    -5.0952898535669391E-028
  -7.5999999999999984E-002    -1.1773545824814468E-027
  -7.4899999999999994E-002    -1.3617464857344835E-027
  -7.3799999999999991E-002     5.4609218757190227E-028
  -7.2699999999999987E-002     6.3198135418743404E-027
  -7.1599999999999997E-002     1.5195804506113018E-026
  -7.0499999999999993E-002     1.9476487334072885E-026
  -6.9399999999999989E-002     2.0123121394388810E-027
  -6.8300000000000000E-002    -5.6711808284993276E-026
  -6.7199999999999996E-002    -1.5388377470880320E-025
  -6.6099999999999992E-002    -2.2505923059448311E-025
  -6.5000000000000002E-002    -1.1946279053371259E-025
  -6.3899999999999985E-002     3.5010640445411017E-025
  -6.2799999999999995E-002     1.2216197426334910E-024
  -6.1699999999999991E-002     2.0786638680450179E-024
  -6.0599999999999994E-002     1.8206335796192404E-024
  -5.9499999999999990E-002    -1.0879116648954425E-024
  -5.8399999999999994E-002    -7.4566674746954478E-024
  -5.7299999999999990E-002    -1.5311135415788506E-023
  -5.6199999999999986E-002    -1.8009921658136403E-023
  -5.5099999999999996E-002    -4.9114479959060195E-024
  -5.3999999999999992E-002     3.2632827998939321E-023
  -5.2899999999999989E-002     8.9279730534284242E-023
  -5.1799999999999985E-002     1.3252179107535991E-022
  -5.0699999999999995E-002     1.0050737953901593E-022
  -4.9599999999999991E-002    -7.3196699455902408E-023
  -4.8499999999999988E-002    -3.9974568379391473E-022
  -4.7399999999999998E-002    -7.5686561567301038E-022
  -4.6299999999999994E-002    -8.4627922536924149E-022
  -4.5199999999999990E-002    -2.6746852795159472E-022
  -4.4099999999999986E-002     1.2311325279371298E-021
  -4.2999999999999997E-002     3.3595177213920455E-021
  -4.1899999999999993E-002     4.9538433247058671E-021
  -4.0799999999999989E-002     4.0610904732527557E-021
  -3.9699999999999985E-002    -1.2069461788007984E-021
  -3.8599999999999995E-002    -1.1011762740842620E-020
  -3.7499999999999992E-002    -2.1927932806559947E-020
  -3.6399999999999988E-002    -2.6239398491990930E-020
  -3.5299999999999984E-002    -1.4056049120153453E-020
  -3.4199999999999994E-002     2.0857523935412250E-020
  -3.3099999999999991E-002     7.2824089325070648E-020
  -3.1999999999999987E-002     1.1789336104214621E-019
  -3.0899999999999997E-002     1.1594819413293948E-019
  -2.9799999999999993E-002     2.6876826780081134E-020
  -2.8699999999999989E-002    -1.5962988329715441E-019
  -2.7599999999999986E-002    -3.9165877555740671E-019
  -2.6499999999999996E-002    -5.4172523605192344E-019
  -2.5399999999999992E-002    -4.3719307787510193E-019
  -2.4299999999999988E-002     5.3490865388137561E-020
  -2.3199999999999985E-002     8.9740886694423914E-019
  -2.2099999999999995E-002     1.7951866564416769E-018
  -2.0999999999999991E-002     2.1864157892190448E-018
  -1.9899999999999987E-002     1.4356960301776625E-018
  -1.8799999999999983E-002    -7.9920055624917381E-019
  -1.7699999999999994E-002    -4.1367852508884262E-018
  -1.6599999999999990E-002    -7.2203164647294069E-018
  -1.5499999999999986E-002    -7.9279231566542191E-018
  -1.4399999999999996E-002    -4.2098095825452200E-018
  -1.3299999999999992E-002     4.5797570125228236E-018
  -1.2199999999999989E-002     1.6384221164466485E-017
  -1.1099999999999985E-002     2.6009777845611246E-017
  -9.9999999999999950E-003     2.6342939726568004E-017
  -8.8999999999999913E-003     1.1457482978083287E-017
  -7.7999999999999875E-003    -1.9164874820347194E-017
  -6.6999999999999837E-003    -5.7183419262264430E-017
  -5.5999999999999939E-003    -8.5184945452507411E-017
  -4.4999999999999901E-003    -8.1608514268848638E-017
  -3.3999999999999864E-003    -3.0725799215572074E-017
  -2.2999999999999826E-003     6.5365486217500054E-017
  -1.1999999999999927E-003     1.7848436066059261E-016
  -9.9999999999988987E-005     2.5636714757138401E-016
   1.0000000000000148E-003     2.3891615127557728E-016
   2.1000000000000185E-003     8.6720550011430453E-017
   3.2000000000000084E-003    -1.8778465007254682E-016
   4.3000000000000121E-003    -5.0204156297486654E-016
   5.4000000000000159E-003    -7.1360577630396119E-016
   6.5000000000000058E-003    -6.6630327430410399E-016
   7.6000000000000234E-003    -2.6403557507089360E-016
   8.7000000000000133E-003     4.5395306733951655E-016
   9.8000000000000032E-003     1.2741688985441865E-015
   1.0900000000000021E-002     1.8409752888803865E-015
   1.2000000000000011E-002     1.7722897048248905E-015
   1.3100000000000001E-002     8.3457081619914384E-016
   1.4200000000000018E-002    -8.8576352876750322E-016
   1.5300000000000008E-002    -2.8989113931880087E-015
   1.6400000000000026E-002    -4.3886767524671348E-015
   1.7500000000000016E-002    -4.4710536712029309E-015
   1.8600000000000005E-002    -2.5768186446650885E-015
   1.9700000000000023E-002     1.1769849968574380E-015
   2.0800000000000013E-002     5.8009834898186969E-015
   2.1900000000000003E-002     9.5778114985508450E-015
   2.3000000000000020E-002     1.0577120640930734E-014
   2.4100000000000010E-002     7.4274743663447704E-015
   2.5200000000000000E-002     8.3909664558522157E-017
   2.6300000000000018E-002    -9.7430015579902732E-015
   2.7400000000000008E-002    -1.8777189005059203E-014
   2.8500000000000025E-002    -2.3077768401781260E-014
   2.9600000000000015E-002    -1.9465650608323920E-014
   3.0700000000000005E-002    -7.0249867561826291E-015
   3.1800000000000023E-002     1.1913316809290288E-014
   3.2900000000000013E-002     3.1829278931494800E-014
   3.4000000000000002E-002     4.5338875069664969E-014
   3.5100000000000020E-002     4.5561864963359136E-014
   3.6200000000000010E-002     2.8853797877457371E-014
   3.7300000000000028E-002    -3.0559254671040648E-015
   3.8400000000000017E-002    -4.2443601259468944E-014
   3.9500000000000007E-002    -7.7024385404956403E-014
   4.0600000000000025E-002    -9.3323454161946956E-014
   4.1700000000000015E-002    -8.1154985617955255E-014
   4.2800000000000005E-002    -3.7849650307399466E-014
   4.3900000000000022E-002     2.9260722669713704E-014
   4.5000000000000012E-002     1.0323503391116567E-013
   4.6100000000000002E-002     1.6114517218442787E-013
   4.7200000000000020E-002     1.8029375464367198E-013
   4.8300000000000010E-002     1.4549024149063811E-013
   4.9400000000000027E-002     5.5317932851593754E-014
   5.0500000000000017E-002    -7.4652530522318489E-014
   5.1600000000000007E-002    -2.1314005248240786E-013
   5.2700000000000025E-002    -3.1929379929948598E-013
   5.3800000000000014E-002    -3.5279694747189505E-013
   5.4900000000000004E-002    -2.8583849154793783E-013
   5.6000000000000022E-002    -1.1402563734799059E-013
   5.7100000000000012E-002     1.3694752797055454E-013
   5.8200000000000002E-002     4.1160225726886990E-013
   5.9300000000000019E-002     6.3347309169070609E-013
   6.0400000000000009E-002     7.2206373909547428E-013
   6.1500000000000027E-002     6.1534853818337454E-013
   6.2600000000000017E-002     2.9295345988465671E-013
   6.3700000000000007E-002    -2.0646997295464126E-013
   6.4800000000000024E-002    -7.8045257973294313E-013
   6.5900000000000014E-002    -1.2756418100653977E-012
   6.7000000000000004E-002    -1.5198488084386397E-012
   6.8100000000000022E-002    -1.3691340812818642E-012
   6.9200000000000012E-002    -7.5986629098287461E-013
   7.0300000000000029E-002     2.4900887558507168E-013
   7.1400000000000019E-002     1.4596589995724552E-012
   7.2500000000000009E-002     2.5577181431840623E-012
   7.3600000000000027E-002     3.1773175670352094E-012
   7.4700000000000016E-002     3.0002179126492612E-012
   7.5800000000000006E-002     1.8670737698955886E-012
   7.6900000000000024E-002    -1.3107937857966684E-013
   7.8000000000000014E-002    -2.6152227085296520E-012
   7.9100000000000004E-002    -4.9604552236626187E-012
   8.0200000000000021E-002    -6.4248471993988421E-012
   8.1300000000000011E-002    -6.3464212184116686E-012
   8.2400000000000029E-002    -4.3637233583526669E-012
   8.3500000000000019E-002    -5.9759212552371044E-013
   8.4600000000000009E-002     4.2705808507570442E-012
   8.5700000000000026E-002     9.0714588618645564E-012
   8.6800000000000016E-002     1.2382882913497539E-011
   8.7900000000000006E-002     1.2892398086605805E-011
   8.9000000000000024E-002     9.8064733417002614E-012
   9.0100000000000013E-002     3.1952374773824843E-012
   9.1200000000000003E-002    -5.8415950028589680E-012
   9.2300000000000021E-002    -1.5271997208521348E-011
   9.3400000000000011E-002    -2.2516261424798678E-011
   9.4500000000000028E-002    -2.5064976136301986E-011
   9.5600000000000018E-002    -2.1199641001001801E-011
   9.6700000000000008E-002    -1.0632316208014636E-011
   9.7800000000000026E-002     5.1297147952988897E-012
   9.8900000000000016E-002     2.2846226646611179E-011
  0.10000000000000001          3.8094059157112170E-011
  0.10110000000000002          4.6242610435287546E-011
  0.10220000000000001          4.3666185250978984E-011
  0.10330000000000003          2.8908328855714593E-011
  0.10440000000000002          3.4779080657076911E-012
  0.10550000000000001         -2.7999432633540877E-011
  0.10660000000000003         -5.8426499749408833E-011
  0.10770000000000002         -7.9644485451169089E-011
  0.10880000000000001         -8.4370010977607990E-011
  0.10990000000000003         -6.8245201156891255E-011
  0.11100000000000002         -3.1488530533030357E-011
  0.11210000000000001          2.0347015738941820E-011
  0.11320000000000002          7.6853703956381025E-011
  0.11430000000000001          1.2457114506592148E-010
  0.11540000000000003          1.4987112939568448E-010
  0.11650000000000002          1.4237074019707308E-010
  0.11760000000000001          9.8096322731500152E-011
  0.11870000000000003          2.1559108664970239E-011
  0.11980000000000002         -7.3954259383057774E-011
  0.12090000000000001         -1.6823280268862817E-010
  0.12200000000000003         -2.3800750259539427E-010
  0.12310000000000001         -2.6218271997890952E-010
  0.12420000000000003         -2.2734433779980634E-010
  0.12530000000000002         -1.3222539729795812E-010
  0.12640000000000001          1.0121904182869290E-011
  0.12750000000000003          1.7331250323771030E-010
  0.12860000000000002          3.2198055333054754E-010
  0.12970000000000001          4.1890976798519830E-010
  0.13080000000000003          4.3359918433516498E-010
  0.13190000000000002          3.5039887658072644E-010
  0.13300000000000001          1.7421804276995800E-010
  0.13410000000000000         -6.7856539831545604E-011
  0.13520000000000004         -3.2991662179959746E-010
  0.13630000000000003         -5.5537319187948242E-010
  0.13740000000000002         -6.8854411061636256E-010
  0.13850000000000001         -6.8739947067797402E-010
  0.13960000000000000         -5.3466520100187154E-010
  0.14070000000000005         -2.4458016167905328E-010
  0.14180000000000004          1.3667138254458422E-010
  0.14290000000000003          5.3758097973144459E-010
  0.14400000000000002          8.7419960159706989E-010
  0.14510000000000001          1.0670250238931089E-009
  0.14620000000000000          1.0585577969735027E-009
  0.14730000000000004          8.2777340537631972E-010
  0.14840000000000003          3.9813563557089537E-010
  0.14950000000000002         -1.6308590589098060E-010
  0.15060000000000001         -7.5473333138731391E-010
  0.15170000000000000         -1.2595396947645554E-009
  0.15280000000000005         -1.5666583585982607E-009
  0.15390000000000004         -1.5946503006958324E-009
  0.15500000000000003         -1.3102866569525418E-009
  0.15610000000000002         -7.3910411124700204E-010
  0.15720000000000001          3.4912565893829850E-011
  0.15830000000000000          8.8112173113330527E-010
  0.15940000000000004          1.6438658212436508E-009
  0.16050000000000003          2.1703454589072635E-009
  0.16160000000000002          2.3397523918333718E-009
  0.16270000000000001          2.0882378048980854E-009
  0.16380000000000000          1.4248524582427535E-009
  0.16490000000000005          4.3507594749137013E-010
  0.16600000000000004         -7.2931344297089140E-010
  0.16710000000000003         -1.8728727457784089E-009
  0.16820000000000002         -2.7882336439688515E-009
  0.16930000000000001         -3.2918594516928579E-009
  0.17040000000000000         -3.2578713060615883E-009
  0.17150000000000004         -2.6441131506516058E-009
  0.17260000000000003         -1.5056883517772235E-009
  0.17370000000000002          6.9770534835700282E-012
  0.17480000000000001          1.6661485524593900E-009
  0.17590000000000000          3.1989935145304571E-009
  0.17700000000000005          4.3297805341069306E-009
  0.17810000000000004          4.8260342389028210E-009
  0.17920000000000003          4.5415284866123784E-009
  0.18030000000000002          3.4488796263332233E-009
  0.18140000000000001          1.6554364545839917E-009
  0.18250000000000000         -6.0182692163124329E-010
  0.18360000000000004         -2.9837843307234380E-009
  0.18470000000000003         -5.0967963183268239E-009
  0.18580000000000002         -6.5546190697318707E-009
  0.18690000000000001         -7.0454655443086267E-009
  0.18800000000000000         -6.3930412075308141E-009
  0.18910000000000005         -4.6000603326490364E-009
  0.19020000000000004         -1.8645813781859033E-009
  0.19130000000000003          1.4366315914671191E-009
  0.19240000000000002          4.7979473727366440E-009
  0.19350000000000001          7.6619253164267320E-009
  0.19460000000000005          9.5118419807249666E-009
  0.19570000000000004          9.9639647643812168E-009
  0.19680000000000003          8.8426155286924768E-009
  0.19790000000000002          6.2231322317529703E-009
  0.19900000000000001          2.4330120140803047E-009
  0.20010000000000000         -1.9910619819540898E-009
  0.20120000000000005         -6.3844005637747614E-009
  0.20230000000000004         -1.0060404065370676E-008
  0.20340000000000003         -1.2423320150389827E-008
  0.20450000000000002         -1.3067873894101467E-008
  0.20560000000000000         -1.1848228176347675E-008
  0.20670000000000005         -8.9042577755549246E-009
  0.20780000000000004         -4.6407468978770794E-009
  0.20890000000000003          3.3659203202418553E-010
  0.21000000000000002          5.3171191893852665E-009
  0.21110000000000001          9.5970245084231465E-009
  0.21220000000000000          1.2588415643222106E-008
  0.21330000000000005          1.3908239004933876E-008
  0.21440000000000003          1.3433091972103739E-008
  0.21550000000000002          1.1311542813530195E-008
  0.21660000000000001          7.9322131085746150E-009
  0.21770000000000000          3.8526359880108885E-009
  0.21880000000000005         -3.0000793516116175E-010
  0.21990000000000004         -3.9405509966172758E-009
  0.22100000000000003         -6.6317547009475675E-009
  0.22210000000000002         -8.1664417450610927E-009
  0.22320000000000001         -8.6107529995160803E-009
  0.22430000000000000         -8.2990201377697304E-009
  0.22540000000000004         -7.7781168172919024E-009
  0.22650000000000003         -7.7073476489886161E-009
  0.22760000000000002         -8.7274596438646768E-009
  0.22870000000000001         -1.1317910164621026E-008
  0.22980000000000000         -1.5663704999724359E-008
  0.23090000000000005         -2.1551555207111051E-008
  0.23200000000000004         -2.8309546706850597E-008
  0.23310000000000003         -3.4795863967929108E-008
  0.23420000000000002         -3.9432251242033090E-008
  0.23530000000000001         -4.0268890444394856E-008
  0.23640000000000000         -3.5060747194393116E-008
  0.23750000000000004         -2.1334448874199552E-008
  0.23860000000000003          3.5726803737645696E-009
  0.23970000000000002          4.2513619291639770E-008
  0.24080000000000001          9.8579079121918767E-008
  0.24190000000000000          1.7519306538815727E-007
  0.24300000000000005          2.7625927145891183E-007
  0.24410000000000004          4.0636246012581978E-007
  0.24520000000000003          5.7103460449070553E-007
  0.24630000000000002          7.7709705692541320E-007
  0.24740000000000001          1.0330873010389041E-006
  0.24850000000000005          1.3497731288225623E-006
  0.24960000000000004          1.7407460290996823E-006
  0.25070000000000003          2.2230792637856212E-006
  0.25180000000000002          2.8180343178973999E-006
  0.25290000000000001          3.5517980450094910E-006
  0.25400000000000000          4.4562539187609218E-006
  0.25510000000000005          5.5698028518236242E-006
  0.25620000000000004          6.9382626861624885E-006
  0.25730000000000003          8.6159197962842882E-006
  0.25840000000000002          1.0666765774658415E-005
  0.25950000000000001          1.3165999007469509E-005
  0.26060000000000005          1.6201829566853121E-005
  0.26170000000000004          1.9877616068697535E-005
  0.26280000000000003          2.4314322217833251E-005
  0.26390000000000002          2.9653256206074730E-005
  0.26500000000000001          3.6059056583326310E-005
  0.26610000000000000          4.3722862756112590E-005
  0.26720000000000005          5.2865623729303479E-005
  0.26830000000000004          6.3741579651832581E-005
  0.26940000000000003          7.6641910709440708E-005
  0.27050000000000002          9.1898662503808737E-005
  0.27160000000000001          1.0988887515850365E-004
  0.27270000000000005          1.3103906530886889E-004
  0.27380000000000004          1.5582992637064308E-004
  0.27490000000000003          1.8480117432773113E-004
  0.27600000000000002          2.1855633531231433E-004
  0.27710000000000001          2.5776730035431683E-004
  0.27820000000000000          3.0317853088490665E-004
  0.27930000000000005          3.5561059485189617E-004
  0.28040000000000004          4.1596291703172028E-004
  0.28150000000000003          4.8521600547246635E-004
  0.28260000000000002          5.6443247012794018E-004
  0.28370000000000001          6.5475725568830967E-004
  0.28480000000000005          7.5741653563454747E-004
  0.28590000000000004          8.7371550034731627E-004
  0.28700000000000003          1.0050340788438916E-003
  0.28810000000000002          1.1528208851814270E-003
  0.28920000000000001          1.3185847783461213E-003
  0.29030000000000000          1.5038839774206281E-003
  0.29140000000000005          1.7103111604228616E-003
  0.29250000000000004          1.9394771661609411E-003
  0.29360000000000003          2.1929901558905840E-003
  0.29470000000000002          2.4724320974200964E-003
  0.29580000000000001          2.7793315239250660E-003
  0.29690000000000005          3.1151357106864452E-003
  0.29800000000000004          3.4811771474778652E-003
  0.29910000000000003          3.8786372169852257E-003
  0.30020000000000002          4.3085091747343540E-003
  0.30130000000000001          4.7715567052364349E-003
  0.30240000000000000          5.2682715468108654E-003
  0.30350000000000005          5.7988287881016731E-003
  0.30460000000000004          6.3630430959165096E-003
  0.30570000000000003          6.9603221490979195E-003
  0.30680000000000002          7.5896242633461952E-003
  0.30790000000000001          8.2494141533970833E-003
  0.30900000000000005          8.9376242831349373E-003
  0.31010000000000004          9.6516227349638939E-003
  0.31120000000000003          1.0388177819550037E-002
  0.31230000000000002          1.1143440380692482E-002
  0.31340000000000001          1.1912922374904156E-002
  0.31450000000000006          1.2691489420831203E-002
  0.31560000000000005          1.3473370112478733E-002
  0.31670000000000004          1.4252159744501114E-002
  0.31780000000000003          1.5020852908492088E-002
  0.31890000000000002          1.5771869570016861E-002
  0.32000000000000001          1.6497110947966576E-002
  0.32110000000000005          1.7188016325235367E-002
  0.32220000000000004          1.7835639417171478E-002
  0.32330000000000003          1.8430745229125023E-002
  0.32440000000000002          1.8963903188705444E-002
  0.32550000000000001          1.9425604492425919E-002
  0.32660000000000006          1.9806377589702606E-002
  0.32770000000000005          2.0096916705369949E-002
  0.32880000000000004          2.0288225263357162E-002
  0.32990000000000003          2.0371766760945320E-002
  0.33100000000000002          2.0339598879218102E-002
  0.33210000000000001          2.0184539258480072E-002
  0.33320000000000005          1.9900297746062279E-002
  0.33430000000000004          1.9481617957353592E-002
  0.33540000000000003          1.8924407660961151E-002
  0.33650000000000002          1.8225857987999916E-002
  0.33760000000000001          1.7384557053446770E-002
  0.33870000000000006          1.6400584951043129E-002
  0.33980000000000005          1.5275587327778339E-002
  0.34090000000000004          1.4012835919857025E-002
  0.34200000000000003          1.2617247179150581E-002
  0.34310000000000002          1.1095389723777771E-002
  0.34420000000000001          9.4554591923952103E-003
  0.34530000000000005          7.7072363346815109E-003
  0.34640000000000004          5.8620152994990349E-003
  0.34750000000000003          3.9325114339590073E-003
  0.34860000000000002          1.9327352056279778E-003
  0.34970000000000001         -1.2215926835779101E-004
  0.35080000000000006         -2.2160492371767759E-003
  0.35190000000000005         -4.3320357799530029E-003
  0.35300000000000004         -6.4526475034654140E-003
  0.35410000000000003         -8.5600567981600761E-003
  0.35520000000000002         -1.0636302642524242E-002
  0.35630000000000001         -1.2663522735238075E-002
  0.35740000000000005         -1.4624194242060184E-002
  0.35850000000000004         -1.6501372680068016E-002
  0.35960000000000003         -1.8278921023011208E-002
  0.36070000000000002         -1.9941730424761772E-002
  0.36180000000000001         -2.1475916728377342E-002
  0.36290000000000006         -2.2869005799293518E-002
  0.36400000000000005         -2.4110084399580956E-002
  0.36510000000000004         -2.5189938023686409E-002
  0.36620000000000003         -2.6101170107722282E-002
  0.36730000000000002         -2.6838280260562897E-002
  0.36840000000000006         -2.7397727593779564E-002
  0.36950000000000005         -2.7777949348092079E-002
  0.37060000000000004         -2.7979347854852676E-002
  0.37170000000000003         -2.8004245832562447E-002
  0.37280000000000002         -2.7856821194291115E-002
  0.37390000000000001         -2.7543008327484131E-002
  0.37500000000000006         -2.7070386335253716E-002
  0.37610000000000005         -2.6448037475347519E-002
  0.37720000000000004         -2.5686385110020638E-002
  0.37830000000000003         -2.4797018617391586E-002
  0.37940000000000002         -2.3792488500475883E-002
  0.38050000000000006         -2.2686103358864784E-002
  0.38160000000000005         -2.1491730585694313E-002
  0.38270000000000004         -2.0223587751388550E-002
  0.38380000000000003         -1.8896048888564110E-002
  0.38490000000000002         -1.7523441463708878E-002
  0.38600000000000001         -1.6119865700602531E-002
  0.38710000000000000         -1.4699004590511322E-002
  0.38819999999999999         -1.3273971155285835E-002
  0.38930000000000009         -1.1857151985168457E-002
  0.39040000000000008         -1.0460086166858673E-002
  0.39150000000000007         -9.0933647006750107E-003
  0.39260000000000006         -7.7665434218943119E-003
  0.39370000000000005         -6.4880866557359695E-003
  0.39480000000000004         -5.2653201855719090E-003
  0.39590000000000003         -4.1044093668460846E-003
  0.39700000000000002         -3.0103593599051237E-003
  0.39810000000000001         -1.9870300311595201E-003
  0.39920000000000000         -1.0371746029704809E-003
  0.40029999999999999         -1.6249042528215796E-004
  0.40140000000000009          6.3631881494075060E-004
  0.40250000000000008          1.3594698393717408E-003
  0.40360000000000007          2.0080162212252617E-003
  0.40470000000000006          2.5837556459009647E-003
  0.40580000000000005          3.0891294591128826E-003
  0.40690000000000004          3.5271218512207270E-003
  0.40800000000000003          3.9011593908071518E-003
  0.40910000000000002          4.2150174267590046E-003
  0.41020000000000001          4.4727316126227379E-003
  0.41130000000000000          4.6785133890807629E-003
  0.41239999999999999          4.8366682603955269E-003
  0.41350000000000009          4.9515138380229473E-003
  0.41460000000000008          5.0273048691451550E-003
  0.41570000000000007          5.0681713037192822E-003
  0.41680000000000006          5.0780675373971462E-003
  0.41790000000000005          5.0607365556061268E-003
  0.41900000000000004          5.0196866504848003E-003
  0.42010000000000003          4.9581727944314480E-003
  0.42120000000000002          4.8791798762977123E-003
  0.42230000000000001          4.7854105941951275E-003
  0.42340000000000000          4.6792784705758095E-003
  0.42449999999999999          4.5629129745066166E-003
  0.42560000000000009          4.4381762854754925E-003
  0.42670000000000008          4.3066856451332569E-003
  0.42780000000000007          4.1698417626321316E-003
  0.42890000000000006          4.0288525633513927E-003
  0.43000000000000005          3.8847532123327255E-003
  0.43110000000000004          3.7384226452559233E-003
  0.43220000000000003          3.5906042903661728E-003
  0.43330000000000002          3.4419305156916380E-003
  0.43440000000000001          3.2929549925029278E-003
  0.43550000000000000          3.1441836617887020E-003
  0.43659999999999999          2.9961005784571171E-003
  0.43770000000000009          2.8491849079728127E-003
  0.43880000000000008          2.7039167471230030E-003
  0.43990000000000007          2.5607803836464882E-003
  0.44100000000000006          2.4202649947255850E-003
  0.44210000000000005          2.2828707005828619E-003
  0.44320000000000004          2.1491148509085178E-003
  0.44430000000000003          2.0195350516587496E-003
  0.44540000000000002          1.8946847412735224E-003
  0.44650000000000001          1.7751203849911690E-003
  0.44760000000000000          1.6613833140581846E-003
  0.44869999999999999          1.5539829619228840E-003
  0.44980000000000009          1.4533837093040347E-003
  0.45090000000000008          1.3599980156868696E-003
  0.45200000000000007          1.2741790851578116E-003
  0.45310000000000006          1.1962109711021185E-003
  0.45420000000000005          1.1262928601354361E-003
  0.45530000000000004          1.0645212605595589E-003
  0.45640000000000003          1.0108745191246271E-003
  0.45750000000000002          9.6520560327917337E-004
  0.45860000000000001          9.2724477872252464E-004
  0.45970000000000000          8.9660944649949670E-004
  0.46079999999999999          8.7281520245596766E-004
  0.46190000000000009          8.5528340423479676E-004
  0.46300000000000008          8.4334512939676642E-004
  0.46410000000000007          8.3624565741047263E-004
  0.46520000000000006          8.3315448137000203E-004
  0.46630000000000005          8.3318381803110242E-004
  0.46740000000000004          8.3541462663561106E-004
  0.46850000000000003          8.3892530528828502E-004
  0.46960000000000002          8.4281584713608027E-004
  0.47070000000000001          8.4622582653537393E-004
  0.47180000000000000          8.4834743756800890E-004
  0.47289999999999999          8.4843707736581564E-004
  0.47400000000000009          8.4583100397139788E-004
  0.47510000000000008          8.3996483590453863E-004
  0.47620000000000007          8.3039363380521536E-004
  0.47730000000000006          8.1680726725608110E-004
  0.47840000000000005          7.9903728328645229E-004