  -48.000000000000000          0.0000000000000000     
  -47.939999999999998          0.0000000000000000     
  -47.880000000000003          0.0000000000000000     
  -47.820000000000000          0.0000000000000000     
  -47.759999999999998          0.0000000000000000     
  -47.700000000000003          0.0000000000000000     
  -47.640000000000001          0.0000000000000000     
  -47.579999999999998          0.0000000000000000     
  -47.520000000000003          0.0000000000000000     
  -47.460000000000001          0.0000000000000000     
  -47.399999999999999          0.0000000000000000     
  -47.340000000000003          0.0000000000000000     
  -47.280000000000001          0.0000000000000000     
  -47.219999999999999          0.0000000000000000     
  -47.159999999999997          0.0000000000000000     
  -47.100000000000001          0.0000000000000000     
  -47.039999999999999          0.0000000000000000     
  -46.979999999999997          0.0000000000000000     
  -46.920000000000002          0.0000000000000000     
  -46.859999999999999          0.0000000000000000     
  -46.799999999999997          0.0000000000000000     
  -46.740000000000002          0.0000000000000000     
  -46.680000000000000          0.0000000000000000     
  -46.619999999999997          0.0000000000000000     
  -46.560000000000002          0.0000000000000000     
  -46.500000000000000          0.0000000000000000     
  -46.439999999999998          0.0000000000000000     
  -46.380000000000003          0.0000000000000000     
  -46.320000000000000          0.0000000000000000     
  -46.259999999999998          0.0000000000000000     
  -46.200000000000003          0.0000000000000000     
  -46.140000000000001          0.0000000000000000     
  -46.079999999999998          0.0000000000000000     
  -46.020000000000003          0.0000000000000000     
  -45.960000000000001          0.0000000000000000     
  -45.899999999999999          0.0000000000000000     
  -45.840000000000003          0.0000000000000000     
  -45.780000000000001          0.0000000000000000     
  -45.719999999999999          0.0000000000000000     
  -45.659999999999997          0.0000000000000000     
  -45.600000000000001          0.0000000000000000     
  -45.539999999999999          0.0000000000000000     
  -45.479999999999997          0.0000000000000000     
  -45.420000000000002          0.0000000000000000     
  -45.359999999999999          0.0000000000000000     
  -45.299999999999997          0.0000000000000000     
  -45.240000000000002          0.0000000000000000     
  -45.180000000000000          0.0000000000000000     
  -45.119999999999997          0.0000000000000000     
  -45.060000000000002          0.0000000000000000     
  -45.000000000000000          0.0000000000000000     
  -44.939999999999998          0.0000000000000000     
  -44.880000000000003          0.0000000000000000     
  -44.820000000000000          0.0000000000000000     
  -44.759999999999998          0.0000000000000000     
  -44.700000000000003          0.0000000000000000     
  -44.640000000000001          0.0000000000000000     
  -44.579999999999998          0.0000000000000000     
  -44.520000000000003          0.0000000000000000     
  -44.460000000000001          0.0000000000000000     
  -44.399999999999999          0.0000000000000000     
  -44.340000000000003          0.0000000000000000     
  -44.280000000000001          0.0000000000000000     
  -44.219999999999999          0.0000000000000000     
  -44.159999999999997          0.0000000000000000     
  -44.100000000000001          0.0000000000000000     
  -44.039999999999999          0.0000000000000000     
  -43.980000000000004          0.0000000000000000     
  -43.920000000000002          0.0000000000000000     
  -43.859999999999999          0.0000000000000000     
  -43.799999999999997          0.0000000000000000     
  -43.740000000000002          0.0000000000000000     
  -43.680000000000000          0.0000000000000000     
  -43.619999999999997          0.0000000000000000     
  -43.560000000000002          0.0000000000000000     
  -43.500000000000000          0.0000000000000000     
  -43.439999999999998          0.0000000000000000     
  -43.380000000000003          0.0000000000000000     
  -43.320000000000000          0.0000000000000000     
  -43.259999999999998          0.0000000000000000     
  -43.200000000000003          0.0000000000000000     
  -43.140000000000001          0.0000000000000000     
  -43.079999999999998          0.0000000000000000     
  -43.020000000000003          0.0000000000000000     
  -42.960000000000001          0.0000000000000000     
  -42.899999999999999          0.0000000000000000     
  -42.840000000000003          0.0000000000000000     
  -42.780000000000001          0.0000000000000000     
  -42.719999999999999          0.0000000000000000     
  -42.659999999999997          0.0000000000000000     
  -42.600000000000001          0.0000000000000000     
  -42.539999999999999          0.0000000000000000     
  -42.480000000000004          0.0000000000000000     
  -42.420000000000002          0.0000000000000000     
  -42.359999999999999          0.0000000000000000     
  -42.299999999999997          0.0000000000000000     
  -42.240000000000002          0.0000000000000000     
  -42.180000000000000          0.0000000000000000     
  -42.119999999999997          0.0000000000000000     
  -42.060000000000002          0.0000000000000000     
  -42.000000000000000          0.0000000000000000     
  -41.939999999999998          0.0000000000000000     
  -41.880000000000003          0.0000000000000000     
  -41.820000000000000          0.0000000000000000     
  -41.759999999999998          0.0000000000000000     
  -41.700000000000003          0.0000000000000000     
  -41.640000000000001          0.0000000000000000     
  -41.579999999999998          0.0000000000000000     
  -41.520000000000003          0.0000000000000000     
  -41.460000000000001          0.0000000000000000     
  -41.399999999999999          0.0000000000000000     
  -41.340000000000003          0.0000000000000000     
  -41.280000000000001          0.0000000000000000     
  -41.219999999999999          0.0000000000000000     
  -41.159999999999997          0.0000000000000000     
  -41.100000000000001          0.0000000000000000     
  -41.039999999999999          0.0000000000000000     
  -40.980000000000004          0.0000000000000000     
  -40.920000000000002          0.0000000000000000     
  -40.859999999999999          0.0000000000000000     
  -40.799999999999997          0.0000000000000000     
  -40.740000000000002          0.0000000000000000     
  -40.680000000000000          0.0000000000000000     
  -40.619999999999997          0.0000000000000000     
  -40.560000000000002          0.0000000000000000     
  -40.500000000000000          0.0000000000000000     
  -40.439999999999998          0.0000000000000000     
  -40.380000000000003          0.0000000000000000     
  -40.320000000000000          0.0000000000000000     
  -40.259999999999998          0.0000000000000000     
  -40.200000000000003          0.0000000000000000     
  -40.140000000000001          0.0000000000000000     
  -40.079999999999998          0.0000000000000000     
  -40.020000000000003          0.0000000000000000     
  -39.960000000000001          0.0000000000000000     
  -39.899999999999999          0.0000000000000000     
  -39.840000000000003          0.0000000000000000     
  -39.780000000000001          0.0000000000000000     
  -39.719999999999999          0.0000000000000000     
  -39.659999999999997          0.0000000000000000     
  -39.600000000000001          0.0000000000000000     
  -39.539999999999999          0.0000000000000000     
  -39.480000000000004          0.0000000000000000     
  -39.420000000000002          0.0000000000000000     
  -39.359999999999999          0.0000000000000000     
  -39.299999999999997          0.0000000000000000     
  -39.240000000000002          0.0000000000000000     
  -39.180000000000000          0.0000000000000000     
  -39.120000000000005          0.0000000000000000     
  -39.060000000000002          0.0000000000000000     
  -39.000000000000000          0.0000000000000000     
  -38.939999999999998          0.0000000000000000     
  -38.880000000000003          0.0000000000000000     
  -38.820000000000000          0.0000000000000000     
  -38.759999999999998          0.0000000000000000     
  -38.700000000000003          0.0000000000000000     
  -38.640000000000001          0.0000000000000000     
  -38.579999999999998          0.0000000000000000     
  -38.519999999999996          0.0000000000000000     
  -38.460000000000001          0.0000000000000000     
  -38.399999999999999          0.0000000000000000     
  -38.340000000000003          0.0000000000000000     
  -38.280000000000001          0.0000000000000000     
  -38.219999999999999          0.0000000000000000     
  -38.159999999999997          0.0000000000000000     
  -38.100000000000001          0.0000000000000000     
  -38.039999999999999          0.0000000000000000     
  -37.980000000000004          0.0000000000000000     
  -37.920000000000002          0.0000000000000000     
  -37.859999999999999          0.0000000000000000     
  -37.799999999999997          0.0000000000000000     
  -37.740000000000002          0.0000000000000000     
  -37.680000000000000          0.0000000000000000     
  -37.620000000000005          0.0000000000000000     
  -37.560000000000002          0.0000000000000000     
  -37.500000000000000          0.0000000000000000     
  -37.439999999999998          0.0000000000000000     
  -37.380000000000003          0.0000000000000000     
  -37.320000000000000          0.0000000000000000     
  -37.259999999999998          0.0000000000000000     
  -37.200000000000003          0.0000000000000000     
  -37.140000000000001          0.0000000000000000     
  -37.079999999999998          0.0000000000000000     
  -37.019999999999996          0.0000000000000000     
  -36.960000000000001          0.0000000000000000     
  -36.899999999999999          0.0000000000000000     
  -36.840000000000003          0.0000000000000000     
  -36.780000000000001          0.0000000000000000     
  -36.719999999999999          0.0000000000000000     
  -36.659999999999997          0.0000000000000000     
  -36.600000000000001          0.0000000000000000     
  -36.539999999999999          0.0000000000000000     
  -36.480000000000004          0.0000000000000000     
  -36.420000000000002          0.0000000000000000     
  -36.359999999999999          0.0000000000000000     
  -36.299999999999997          0.0000000000000000     
  -36.240000000000002          0.0000000000000000     
  -36.180000000000000          0.0000000000000000     
  -36.120000000000005          0.0000000000000000     
  -36.060000000000002          0.0000000000000000     
  -36.000000000000000          0.0000000000000000     
  -35.939999999999998          0.0000000000000000     
  -35.880000000000003          0.0000000000000000     
  -35.820000000000000          0.0000000000000000     
  -35.759999999999998          0.0000000000000000     
  -35.700000000000003          0.0000000000000000     
  -35.640000000000001          0.0000000000000000     
  -35.579999999999998          0.0000000000000000     
  -35.519999999999996          0.0000000000000000     
  -35.460000000000001          0.0000000000000000     
  -35.399999999999999          0.0000000000000000     
  -35.340000000000003          0.0000000000000000     
  -35.280000000000001          0.0000000000000000     
  -35.219999999999999          0.0000000000000000     
  -35.159999999999997          0.0000000000000000     
  -35.100000000000001          0.0000000000000000     
  -35.039999999999999          0.0000000000000000     
  -34.980000000000004          0.0000000000000000     
  -34.920000000000002          0.0000000000000000     
  -34.859999999999999          0.0000000000000000     
  -34.799999999999997          0.0000000000000000     
  -34.740000000000002          0.0000000000000000     
  -34.680000000000000          0.0000000000000000     
  -34.620000000000005          0.0000000000000000     
  -34.560000000000002          0.0000000000000000     
  -34.500000000000000          0.0000000000000000     
  -34.439999999999998          0.0000000000000000     
  -34.380000000000003          0.0000000000000000     
  -34.320000000000000          0.0000000000000000     
  -34.259999999999998          0.0000000000000000     
  -34.200000000000003          0.0000000000000000     
  -34.140000000000001          0.0000000000000000     
  -34.079999999999998          0.0000000000000000     
  -34.020000000000003          0.0000000000000000     
  -33.960000000000001          0.0000000000000000     
  -33.899999999999999          0.0000000000000000     
  -33.840000000000003          0.0000000000000000     
  -33.780000000000001          0.0000000000000000     
  -33.719999999999999          0.0000000000000000     
  -33.659999999999997          0.0000000000000000     
  -33.600000000000001          0.0000000000000000     
  -33.539999999999999          0.0000000000000000     
  -33.480000000000004          0.0000000000000000     
  -33.420000000000002          0.0000000000000000     
  -33.359999999999999          0.0000000000000000     
  -33.299999999999997          0.0000000000000000     
  -33.240000000000002          0.0000000000000000     
  -33.180000000000000          0.0000000000000000     
  -33.120000000000005          0.0000000000000000     
  -33.060000000000002          0.0000000000000000     
  -33.000000000000000          0.0000000000000000     
  -32.939999999999998          0.0000000000000000     
  -32.880000000000003          0.0000000000000000     
  -32.820000000000000          0.0000000000000000     
  -32.759999999999998          0.0000000000000000     
  -32.700000000000003          0.0000000000000000     
  -32.640000000000001          0.0000000000000000     
  -32.579999999999998          0.0000000000000000     
  -32.520000000000003          0.0000000000000000     
  -32.460000000000001          0.0000000000000000     
  -32.399999999999999          0.0000000000000000     
  -32.340000000000003          0.0000000000000000     
  -32.280000000000001          0.0000000000000000     
  -32.219999999999999          0.0000000000000000     
  -32.159999999999997          0.0000000000000000     
  -32.100000000000001          0.0000000000000000     
  -32.039999999999999          0.0000000000000000     
  -31.980000000000000          0.0000000000000000     
  -31.920000000000002          0.0000000000000000     
  -31.859999999999999          0.0000000000000000     
  -31.800000000000001          0.0000000000000000     
  -31.740000000000002          0.0000000000000000     
  -31.680000000000000          0.0000000000000000     
  -31.620000000000001          0.0000000000000000     
  -31.560000000000002          0.0000000000000000     
  -31.500000000000000          0.0000000000000000     
  -31.440000000000001          0.0000000000000000     
  -31.379999999999999          0.0000000000000000     
  -31.320000000000000          0.0000000000000000     
  -31.260000000000002          0.0000000000000000     
  -31.199999999999999          0.0000000000000000     
  -31.140000000000001          0.0000000000000000     
  -31.080000000000002          0.0000000000000000     
  -31.020000000000000          0.0000000000000000     
  -30.960000000000001          0.0000000000000000     
  -30.900000000000002          0.0000000000000000     
  -30.840000000000000          0.0000000000000000     
  -30.780000000000001          0.0000000000000000     
  -30.719999999999999          0.0000000000000000     
  -30.660000000000000          0.0000000000000000     
  -30.600000000000001          0.0000000000000000     
  -30.539999999999999          0.0000000000000000     
  -30.480000000000000          0.0000000000000000     
  -30.420000000000002          0.0000000000000000     
  -30.359999999999999          0.0000000000000000     
  -30.300000000000001          0.0000000000000000     
  -30.240000000000002          0.0000000000000000     
  -30.180000000000000          0.0000000000000000     
  -30.120000000000001          1.7299981169942027E-046
  -30.060000000000002          5.1899943509826082E-046
  -30.000000000000000          1.1244987760462318E-045
  -29.940000000000001          1.9029979286936230E-045
  -29.879999999999999          2.5084972696415940E-045
  -29.820000000000000          2.9409967988901447E-045
  -29.760000000000002          3.4599962339884055E-045
  -29.699999999999999          3.9789956690866663E-045
  -29.640000000000001          4.7574948217340575E-045
  -29.580000000000002          5.8819935977802893E-045
  -29.520000000000000          7.0929922796762312E-045
  -29.460000000000001          8.8229903966704340E-045
  -29.400000000000002          1.1763987195560579E-044
  -29.340000000000000          1.3147985689155941E-044
  -29.280000000000001          1.3147985689155941E-044
  -29.220000000000002          1.2109986818959422E-044
  -29.160000000000000          1.2369486536508560E-044
  -29.100000000000001          1.2801986065757125E-044
  -29.039999999999999          1.3320985500855401E-044
  -28.980000000000000          1.5569983052947884E-044
  -28.920000000000002          1.7905480510890073E-044
  -28.859999999999999          2.1538476556577904E-044
  -28.800000000000001          2.4479473355468048E-044
  -28.740000000000002          2.9928967423999782E-044
  -28.680000000000000          3.6762459986126873E-044
  -28.620000000000001          4.4201451889201920E-044
  -28.560000000000002          5.6311438708161279E-044
  -28.500000000000000          6.3483198261725792E-044
  -28.440000000000001          6.9420276464810896E-044
  -28.379999999999999          7.4181689831062574E-044
  -28.320000000000000          8.1975750507579244E-044
  -28.260000000000002          9.3984623902148243E-044
  -28.199999999999999          1.1381382266825366E-043
  -28.140000000000001          1.3925176736463660E-043
  -28.080000000000002          1.7244672251814836E-043
  -28.020000000000000          2.2179052887811581E-043
  -27.960000000000001          2.8580495541313243E-043
  -27.900000000000002          3.8437861062301704E-043
  -27.840000000000000          5.1951264397817370E-043
  -27.780000000000001          7.0147686160613412E-043
  -27.720000000000002          9.2845696757072323E-043
  -27.660000000000000          1.1967263361743720E-042
  -27.600000000000001          1.5004816100546347E-042
  -27.539999999999999          1.8815346546214400E-042
  -27.480000000000000          2.3571083873660097E-042
  -27.420000000000002          2.9407779993967273E-042
  -27.359999999999999          3.6594164823105105E-042
  -27.300000000000001          4.5255186949577654E-042
  -27.240000000000002          5.5967388303354126E-042
  -27.180000000000000          6.9554802383211579E-042
  -27.120000000000001          8.6604274958248914E-042
  -27.060000000000002          1.0826240068453091E-041
  -27.000000000000000          1.3489684768559523E-041
  -26.940000000000001          1.6787812978305686E-041
  -26.880000000000003          2.0874185647614497E-041
  -26.820000000000000          2.5983451781021925E-041
  -26.760000000000002          3.2423190341800957E-041
  -26.699999999999999          4.0520510961973592E-041
  -26.640000000000001          5.0641135939320437E-041
  -26.580000000000002          6.3254615769933253E-041
  -26.520000000000000          7.8918154726898234E-041
  -26.460000000000001          9.8371786690368258E-041
  -26.400000000000002          1.2256383304598265E-040
  -26.340000000000000          1.5253337926590680E-040
  -26.280000000000001          1.8966409160274325E-040
  -26.220000000000002          2.3558949170752236E-040
  -26.160000000000000          2.9243784937309019E-040
  -26.100000000000001          3.6276969531488792E-040
  -26.039999999999999          4.4979020317491449E-040
  -25.980000000000000          5.5740793063517892E-040
  -25.920000000000002          6.9046646485793674E-040
  -25.859999999999999          8.5490788230533727E-040
  -25.800000000000001          1.0579907668097426E-039
  -25.740000000000002          1.3087745122612905E-039
  -25.680000000000000          1.6182985472568229E-039
  -25.620000000000001          2.0000091745109864E-039
  -25.560000000000002          2.4705786516424850E-039
  -25.500000000000000          3.0502894292999315E-039
  -25.440000000000001          3.7641193602745852E-039
  -25.380000000000003          4.6425813983660308E-039
  -25.320000000000000          5.7231124813765048E-039
  -25.260000000000002          7.0514967254997764E-039
  -25.199999999999999          8.6836908267806031E-039
  -25.140000000000001          1.0688149078756790E-038
  -25.080000000000002          1.3148570375875072E-038
  -25.020000000000000          1.6167076425190620E-038
  -24.960000000000001          1.9868480352608434E-038
  -24.900000000000002          2.4404978715239020E-038
  -24.840000000000000          2.9962115295067147E-038
  -24.780000000000001          3.6765957142028965E-038
  -24.720000000000002          4.5091815759677512E-038
  -24.660000000000000          5.5274894944824975E-038
  -24.600000000000001          6.7723129638859462E-038
  -24.539999999999999          8.2932487643464622E-038
  -24.480000000000000          1.0150594892763627E-037
  -24.420000000000002          1.2417602479624404E-037
  -24.359999999999999          1.5183219957306826E-037
  -24.300000000000001          1.8555401515071047E-037
  -24.240000000000002          2.2665074130587991E-037
  -24.180000000000000          2.7670960807659054E-037
  -24.120000000000001          3.3765338690074384E-037
  -24.060000000000002          4.1181049504564060E-037
  -24.000000000000000          5.0199835196603340E-037
  -23.940000000000001          6.1162459554200910E-037
  -23.880000000000003          7.4480939413762027E-037
  -23.820000000000000          9.0653110668574337E-037
  -23.760000000000002          1.1028019163530113E-036
  -23.699999999999999          1.3408806250456735E-036
  -23.640000000000001          1.6295256402021840E-036
  -23.580000000000002          1.9792995275224323E-036
  -23.520000000000000          2.4029338225918398E-036
  -23.460000000000001          2.9157692400535563E-036
  -23.400000000000002          3.5362756505211145E-036
  -23.340000000000000          4.2866831868737202E-036
  -23.280000000000001          5.1937325990293048E-036
  -23.220000000000002          6.2895670682048975E-036
  -23.160000000000000          7.6128077530620353E-036
  -23.100000000000001          9.2098354171094174E-036
  -23.039999999999999          1.1136297470912610E-035
  -22.980000000000000          1.3458939632756661E-035
  -22.920000000000002          1.6257759224544926E-035
  -22.859999999999999          1.9628584123979821E-035
  -22.800000000000001          2.3686158840390429E-035
  -22.740000000000002          2.8567762208793769E-035
  -22.680000000000000          3.4437595501143939E-035
  -22.620000000000001          4.1491988223324948E-035
  -22.560000000000002          4.9965521239883249E-035
  -22.500000000000000          6.0138418782693480E-035
  -22.440000000000001          7.2345275167340195E-035
  -22.380000000000003          8.6985303490057366E-035
  -22.320000000000000          1.0453471368901012E-034
  -22.260000000000002          1.2556098458652434E-034
  -22.199999999999999          1.5074043856826331E-034
  -22.140000000000001          1.8087822102312720E-034
  -22.080000000000002          2.1693278795294132E-034
  -22.020000000000000          2.6004422198300939E-034
  -21.960000000000001          3.1156793340474326E-034
  -21.900000000000002          3.7311446066698617E-034
  -21.840000000000000          4.4659615751777689E-034
  -21.780000000000001          5.3428230804338849E-034
  -21.720000000000002          6.3886355090847441E-034
  -21.660000000000000          7.6352958480680773E-034
  -21.600000000000001          9.1205793552664380E-034
  -21.540000000000003          1.0889204966609299E-033
  -21.480000000000000          1.2994079461503018E-033
  -21.420000000000002          1.5497768696022989E-033
  -21.359999999999999          1.8474220833735225E-033
  -21.300000000000001          2.2010789918530290E-033
  -21.240000000000002          2.6210669900551027E-033
  -21.180000000000000          3.1195653896053821E-033
  -21.120000000000001          3.7109458378802426E-033
  -21.060000000000002          4.4121570194874878E-033
  -21.000000000000000          5.2431732478753075E-033
  -20.940000000000001          6.2275246799566082E-033
  -20.880000000000003          7.3929110289265260E-033
  -20.820000000000000          8.7719232125437606E-033
  -20.760000000000002          1.0402886021960349E-032
  -20.699999999999999          1.2330844447673871E-032
  -20.640000000000001          1.4608712761782680E-032
  -20.580000000000002          1.7298619409704579E-032
  -20.520000000000000          2.0473475368929440E-032
  -20.460000000000001          2.4218785567570955E-032
  -20.400000000000002          2.8634817470576816E-032
  -20.340000000000000          3.3839000253123461E-032
  -20.280000000000001          3.9968803976394160E-032
  -20.220000000000002          4.7185038536406536E-032
  -20.160000000000000          5.5675678531833962E-032
  -20.100000000000001          6.5660260635354444E-032
  -20.040000000000003          7.7395061733600357E-032
  -19.980000000000000          9.1179115358543252E-032
  -19.920000000000002          1.0736120114719864E-031
  -19.859999999999999          1.2634782565486192E-031
  -19.800000000000001          1.4861296064002489E-031
  -19.740000000000002          1.7470899516150857E-031
  -19.680000000000000          2.0527965434938061E-031
  -19.620000000000001          2.4107459407782599E-031
  -19.560000000000002          2.8296671889429606E-031
  -19.500000000000000          3.3197126285834286E-031
  -19.440000000000001          3.8926869144311943E-031
  -19.380000000000003          4.5622979196399714E-031
  -19.320000000000000          5.3444457507602678E-031
  -19.260000000000002          6.2575557581338852E-031
  -19.200000000000003          7.3229566869093876E-031
  -19.140000000000001          8.5653220794383399E-031
  -19.080000000000002          1.0013181532666984E-030
  -19.020000000000000          1.1699530877108490E-030
  -18.960000000000001          1.3662509850776083E-030
  -18.900000000000002          1.5946198801639844E-030
  -18.840000000000000          1.8601563878691294E-030
  -18.780000000000001          2.1687527822330502E-030
  -18.720000000000002          2.5272139454649623E-030
  -18.660000000000000          2.9433996866592813E-030
  -18.600000000000001          3.4263752504423574E-030
  -18.540000000000003          3.9865935138601681E-030
  -18.480000000000000          4.6360888258595869E-030
  -18.420000000000002          5.3887115267749754E-030
  -18.359999999999999          6.2603781808584954E-030
  -18.300000000000001          7.2693828037441166E-030
  -18.240000000000002          8.4367359731214383E-030
  -18.180000000000000          9.7865485374016701E-030
  -18.120000000000001          1.1346482442848334E-029
  -18.060000000000002          1.3148243531839587E-029
  -18.000000000000000          1.5228159697466490E-029
  -17.940000000000001          1.7627804331150891E-029
  -17.880000000000003          2.0394712743034901E-029
  -17.820000000000000          2.3583222629865762E-029
  -17.760000000000002          2.7255395045708448E-029
  -17.700000000000003          3.1482150786923082E-029
  -17.640000000000001          3.6344464352532139E-029
  -17.580000000000002          4.1934840748332962E-029
  -17.520000000000000          4.8359014218514074E-029
  -17.460000000000001          5.5737822614179788E-029
  -17.400000000000002          6.4209334731960267E-029
  -17.340000000000000          7.3931137451876180E-029
  -17.280000000000001          8.5082967589966094E-029
  -17.220000000000002          9.7869422146333794E-029
  -17.160000000000000          1.1252295501901872E-028
  -17.100000000000001          1.2930730574836217E-028
  -17.040000000000003          1.4852091568453595E-028
  -16.980000000000000          1.7050145424028247E-028
  -16.920000000000002          1.9563055121604008E-028
  -16.859999999999999          2.2433950691374956E-028
  -16.800000000000001          2.5711602681246891E-028
  -16.740000000000002          2.9451200105093614E-028
  -16.680000000000000          3.3715266823807427E-028
  -16.620000000000001          3.8574687844061886E-028
  -16.560000000000002          4.4109914624456150E-028
  -16.500000000000000          5.0412186058140268E-028
  -16.440000000000001          5.7584973339821049E-028
  -16.380000000000003          6.5745461616261795E-028
  -16.320000000000000          7.5026113356875358E-028
  -16.260000000000002          8.5576452894435889E-028
  -16.200000000000003          9.7564772614794532E-028
  -16.140000000000001          1.1118006543024321E-027
  -16.080000000000002          1.2663401269800689E-027
  -16.020000000000000          1.4416342394907044E-027
  -15.960000000000001          1.6403286771585468E-027
  -15.899999999999999          1.8653768948865654E-027
  -15.840000000000003          2.1200758837999928E-027
  -15.780000000000001          2.4081095610277015E-027
  -15.719999999999999          2.7335988550187838E-027
  -15.660000000000004          3.1011565798980192E-027
  -15.600000000000001          3.5159537215856513E-027
  -15.539999999999999          3.9837901746722599E-027
  -15.480000000000004          4.5111773957416524E-027
  -15.420000000000002          5.1054299457662281E-027
  -15.359999999999999          5.7747685767910916E-027