  -48.000000000000000          0.0000000000000000     
  -47.939999999999998          0.0000000000000000     
  -47.880000000000003          0.0000000000000000     
  -47.820000000000000          0.0000000000000000     
  -47.759999999999998          0.0000000000000000     
  -47.700000000000003          0.0000000000000000     
  -47.640000000000001          0.0000000000000000     
  -47.579999999999998          0.0000000000000000     
  -47.520000000000003          0.0000000000000000     
  -47.460000000000001          0.0000000000000000     
  -47.399999999999999          0.0000000000000000     
  -47.340000000000003          0.0000000000000000     
  -47.280000000000001          0.0000000000000000     
  -47.219999999999999          0.0000000000000000     
  -47.159999999999997          0.0000000000000000     
  -47.100000000000001          0.0000000000000000     
  -47.039999999999999          0.0000000000000000     
  -46.979999999999997          0.0000000000000000     
  -46.920000000000002          0.0000000000000000     
  -46.859999999999999          0.0000000000000000     
  -46.799999999999997          0.0000000000000000     
  -46.740000000000002          0.0000000000000000     
  -46.680000000000000          0.0000000000000000     
  -46.619999999999997          0.0000000000000000     
  -46.560000000000002          0.0000000000000000     
  -46.500000000000000          0.0000000000000000     
  -46.439999999999998          0.0000000000000000     
  -46.380000000000003          0.0000000000000000     
  -46.320000000000000          0.0000000000000000     
  -46.259999999999998          0.0000000000000000     
  -46.200000000000003          0.0000000000000000     
  -46.140000000000001          0.0000000000000000     
  -46.079999999999998          0.0000000000000000     
  -46.020000000000003          0.0000000000000000     
  -45.960000000000001          0.0000000000000000     
  -45.899999999999999          0.0000000000000000     
  -45.840000000000003          0.0000000000000000     
  -45.780000000000001          0.0000000000000000     
  -45.719999999999999          0.0000000000000000     
  -45.659999999999997          0.0000000000000000     
  -45.600000000000001          0.0000000000000000     
  -45.539999999999999          0.0000000000000000     
  -45.479999999999997          0.0000000000000000     
  -45.420000000000002          0.0000000000000000     
  -45.359999999999999          0.0000000000000000     
  -45.299999999999997          0.0000000000000000     
  -45.240000000000002          0.0000000000000000     
  -45.180000000000000          0.0000000000000000     
  -45.119999999999997          0.0000000000000000     
  -45.060000000000002          0.0000000000000000     
  -45.000000000000000          0.0000000000000000     
  -44.939999999999998          0.0000000000000000     
  -44.880000000000003          0.0000000000000000     
  -44.820000000000000          0.0000000000000000     
  -44.759999999999998          0.0000000000000000     
  -44.700000000000003          0.0000000000000000     
  -44.640000000000001          0.0000000000000000     
  -44.579999999999998          0.0000000000000000     
  -44.520000000000003          0.0000000000000000     
  -44.460000000000001          0.0000000000000000     
  -44.399999999999999          0.0000000000000000     
  -44.340000000000003          0.0000000000000000     
  -44.280000000000001          0.0000000000000000     
  -44.219999999999999          0.0000000000000000     
  -44.159999999999997          0.0000000000000000     
  -44.100000000000001          0.0000000000000000     
  -44.039999999999999          0.0000000000000000     
  -43.980000000000004          0.0000000000000000     
  -43.920000000000002          0.0000000000000000     
  -43.859999999999999          0.0000000000000000     
  -43.799999999999997          0.0000000000000000     
  -43.740000000000002          0.0000000000000000     
  -43.680000000000000          0.0000000000000000     
  -43.619999999999997          0.0000000000000000     
  -43.560000000000002          0.0000000000000000     
  -43.500000000000000          0.0000000000000000     
  -43.439999999999998          0.0000000000000000     
  -43.380000000000003          0.0000000000000000     
  -43.320000000000000          0.0000000000000000     
  -43.259999999999998          0.0000000000000000     
  -43.200000000000003          0.0000000000000000     
  -43.140000000000001          0.0000000000000000     
  -43.079999999999998          0.0000000000000000     
  -43.020000000000003          0.0000000000000000     
  -42.960000000000001          0.0000000000000000     
  -42.899999999999999          0.0000000000000000     
  -42.840000000000003          0.0000000000000000     
  -42.780000000000001          0.0000000000000000     
  -42.719999999999999          0.0000000000000000     
  -42.659999999999997          0.0000000000000000     
  -42.600000000000001          0.0000000000000000     
  -42.539999999999999          0.0000000000000000     
  -42.480000000000004          0.0000000000000000     
  -42.420000000000002          0.0000000000000000     
  -42.359999999999999          0.0000000000000000     
  -42.299999999999997          0.0000000000000000     
  -42.240000000000002          0.0000000000000000     
  -42.180000000000000          0.0000000000000000     
  -42.119999999999997          0.0000000000000000     
  -42.060000000000002          0.0000000000000000     
  -42.000000000000000          0.0000000000000000     
  -41.939999999999998          0.0000000000000000     
  -41.880000000000003          0.0000000000000000     
  -41.820000000000000          0.0000000000000000     
  -41.759999999999998          0.0000000000000000     
  -41.700000000000003          0.0000000000000000     
  -41.640000000000001          0.0000000000000000     
  -41.579999999999998          0.0000000000000000     
  -41.520000000000003          0.0000000000000000     
  -41.460000000000001          0.0000000000000000     
  -41.399999999999999          0.0000000000000000     
  -41.340000000000003          0.0000000000000000     
  -41.280000000000001          0.0000000000000000     
  -41.219999999999999          0.0000000000000000     
  -41.159999999999997          0.0000000000000000     
  -41.100000000000001          0.0000000000000000     
  -41.039999999999999          0.0000000000000000     
  -40.980000000000004          0.0000000000000000     
  -40.920000000000002          0.0000000000000000     
  -40.859999999999999          0.0000000000000000     
  -40.799999999999997          0.0000000000000000     
  -40.740000000000002          0.0000000000000000     
  -40.680000000000000          0.0000000000000000     
  -40.619999999999997          0.0000000000000000     
  -40.560000000000002          0.0000000000000000     
  -40.500000000000000          0.0000000000000000     
  -40.439999999999998          0.0000000000000000     
  -40.380000000000003          0.0000000000000000     
  -40.320000000000000          0.0000000000000000     
  -40.259999999999998          0.0000000000000000     
  -40.200000000000003          0.0000000000000000     
  -40.140000000000001          0.0000000000000000     
  -40.079999999999998          0.0000000000000000     
  -40.020000000000003          0.0000000000000000     
  -39.960000000000001          0.0000000000000000     
  -39.899999999999999          0.0000000000000000     
  -39.840000000000003          0.0000000000000000     
  -39.780000000000001          0.0000000000000000     
  -39.719999999999999          0.0000000000000000     
  -39.659999999999997          0.0000000000000000     
  -39.600000000000001          0.0000000000000000     
  -39.539999999999999          0.0000000000000000     
  -39.480000000000004          0.0000000000000000     
  -39.420000000000002          0.0000000000000000     
  -39.359999999999999          0.0000000000000000     
  -39.299999999999997          0.0000000000000000     
  -39.240000000000002          0.0000000000000000     
  -39.180000000000000          0.0000000000000000     
  -39.120000000000005          0.0000000000000000     
  -39.060000000000002          0.0000000000000000     
  -39.000000000000000          0.0000000000000000     
  -38.939999999999998          0.0000000000000000     
  -38.880000000000003          0.0000000000000000     
  -38.820000000000000          0.0000000000000000     
  -38.759999999999998          0.0000000000000000     
  -38.700000000000003          0.0000000000000000     
  -38.640000000000001          0.0000000000000000     
  -38.579999999999998          0.0000000000000000     
  -38.519999999999996          0.0000000000000000     
  -38.460000000000001          0.0000000000000000     
  -38.399999999999999          0.0000000000000000     
  -38.340000000000003          0.0000000000000000     
  -38.280000000000001          0.0000000000000000     
  -38.219999999999999          0.0000000000000000     
  -38.159999999999997          0.0000000000000000     
  -38.100000000000001          0.0000000000000000     
  -38.039999999999999          0.0000000000000000     
  -37.980000000000004          0.0000000000000000     
  -37.920000000000002          0.0000000000000000     
  -37.859999999999999          0.0000000000000000     
  -37.799999999999997          0.0000000000000000     
  -37.740000000000002          0.0000000000000000     
  -37.680000000000000          0.0000000000000000     
  -37.620000000000005          0.0000000000000000     
  -37.560000000000002          0.0000000000000000     
  -37.500000000000000          0.0000000000000000     
  -37.439999999999998          0.0000000000000000     
  -37.380000000000003          0.0000000000000000     
  -37.320000000000000          0.0000000000000000     
  -37.259999999999998          0.0000000000000000     
  -37.200000000000003          0.0000000000000000     
  -37.140000000000001          0.0000000000000000     
  -37.079999999999998          0.0000000000000000     
  -37.019999999999996          0.0000000000000000     
  -36.960000000000001          0.0000000000000000     
  -36.899999999999999          0.0000000000000000     
  -36.840000000000003          0.0000000000000000     
  -36.780000000000001          0.0000000000000000     
  -36.719999999999999          0.0000000000000000     
  -36.659999999999997          0.0000000000000000     
  -36.600000000000001          0.0000000000000000     
  -36.539999999999999          0.0000000000000000     
  -36.480000000000004          0.0000000000000000     
  -36.420000000000002          0.0000000000000000     
  -36.359999999999999          0.0000000000000000     
  -36.299999999999997          0.0000000000000000     
  -36.240000000000002          0.0000000000000000     
  -36.180000000000000          0.0000000000000000     
  -36.120000000000005          0.0000000000000000     
  -36.060000000000002          0.0000000000000000     
  -36.000000000000000          0.0000000000000000     
  -35.939999999999998          0.0000000000000000     
  -35.880000000000003          0.0000000000000000     
  -35.820000000000000          0.0000000000000000     
  -35.759999999999998          0.0000000000000000     
  -35.700000000000003          0.0000000000000000     
  -35.640000000000001          0.0000000000000000     
  -35.579999999999998          0.0000000000000000     
  -35.519999999999996          0.0000000000000000     
  -35.460000000000001          0.0000000000000000     
  -35.399999999999999          0.0000000000000000     
  -35.340000000000003          0.0000000000000000     
  -35.280000000000001          0.0000000000000000     
  -35.219999999999999          0.0000000000000000     
  -35.159999999999997          0.0000000000000000     
  -35.100000000000001          0.0000000000000000     
  -35.039999999999999          0.0000000000000000     
  -34.980000000000004          0.0000000000000000     
  -34.920000000000002          0.0000000000000000     
  -34.859999999999999          0.0000000000000000     
  -34.799999999999997          0.0000000000000000     
  -34.740000000000002          0.0000000000000000     
  -34.680000000000000          0.0000000000000000     
  -34.620000000000005          0.0000000000000000     
  -34.560000000000002          0.0000000000000000     
  -34.500000000000000          0.0000000000000000     
  -34.439999999999998          0.0000000000000000     
  -34.380000000000003          0.0000000000000000     
  -34.320000000000000          0.0000000000000000     
  -34.259999999999998          0.0000000000000000     
  -34.200000000000003          0.0000000000000000     
  -34.140000000000001          0.0000000000000000     
  -34.079999999999998          0.0000000000000000     
  -34.020000000000003          0.0000000000000000     
  -33.960000000000001          0.0000000000000000     
  -33.899999999999999          0.0000000000000000     
  -33.840000000000003          0.0000000000000000     
  -33.780000000000001          0.0000000000000000     
  -33.719999999999999          0.0000000000000000     
  -33.659999999999997          0.0000000000000000     
  -33.600000000000001          0.0000000000000000     
  -33.539999999999999          0.0000000000000000     
  -33.480000000000004          0.0000000000000000     
  -33.420000000000002          0.0000000000000000     
  -33.359999999999999          0.0000000000000000     
  -33.299999999999997          0.0000000000000000     
  -33.240000000000002          0.0000000000000000     
  -33.180000000000000          0.0000000000000000     
  -33.120000000000005          0.0000000000000000     
  -33.060000000000002          0.0000000000000000     
  -33.000000000000000          0.0000000000000000     
  -32.939999999999998          0.0000000000000000     
  -32.880000000000003          0.0000000000000000     
  -32.820000000000000          0.0000000000000000     
  -32.759999999999998          0.0000000000000000     
  -32.700000000000003          0.0000000000000000     
  -32.640000000000001          0.0000000000000000     
  -32.579999999999998          0.0000000000000000     
  -32.520000000000003          0.0000000000000000     
  -32.460000000000001          0.0000000000000000     
  -32.399999999999999          0.0000000000000000     
  -32.340000000000003          0.0000000000000000     
  -32.280000000000001          0.0000000000000000     
  -32.219999999999999          0.0000000000000000     
  -32.159999999999997          0.0000000000000000     
  -32.100000000000001          0.0000000000000000     
  -32.039999999999999          0.0000000000000000     
  -31.980000000000000          0.0000000000000000     
  -31.920000000000002          0.0000000000000000     
  -31.859999999999999          0.0000000000000000     
  -31.800000000000001          0.0000000000000000     
  -31.740000000000002          0.0000000000000000     
  -31.680000000000000          0.0000000000000000     
  -31.620000000000001          0.0000000000000000     
  -31.560000000000002          0.0000000000000000     
  -31.500000000000000          0.0000000000000000     
  -31.440000000000001          0.0000000000000000     
  -31.379999999999999          0.0000000000000000     
  -31.320000000000000          0.0000000000000000     
  -31.260000000000002          0.0000000000000000     
  -31.199999999999999          0.0000000000000000     
  -31.140000000000001          0.0000000000000000     
  -31.080000000000002          0.0000000000000000     
  -31.020000000000000          0.0000000000000000     
  -30.960000000000001          0.0000000000000000     
  -30.900000000000002          0.0000000000000000     
  -30.840000000000000          0.0000000000000000     
  -30.780000000000001          0.0000000000000000     
  -30.719999999999999          0.0000000000000000     
  -30.660000000000000          0.0000000000000000     
  -30.600000000000001          0.0000000000000000     
  -30.539999999999999          0.0000000000000000     
  -30.480000000000000          0.0000000000000000     
  -30.420000000000002          0.0000000000000000     
  -30.359999999999999          0.0000000000000000     
  -30.300000000000001          0.0000000000000000     
  -30.240000000000002          0.0000000000000000     
  -30.180000000000000          0.0000000000000000     
  -30.120000000000001          1.7299981169942027E-046
  -30.060000000000002          5.1899943509826082E-046
  -30.000000000000000          1.1244987760462318E-045
  -29.940000000000001          1.9029979286936230E-045
  -29.879999999999999          3.0274967047398548E-045
  -29.820000000000000          4.0654955749363764E-045
  -29.760000000000002          4.9304946334334778E-045
  -29.699999999999999          5.7954936919305792E-045
  -29.640000000000001          6.9199924679768110E-045
  -29.580000000000002          8.3904908674218833E-045
  -29.520000000000000          9.9474891727166658E-045
  -29.460000000000001          1.2023486913109709E-044
  -29.400000000000002          1.3407485406705071E-044
  -29.340000000000000          1.3407485406705071E-044
  -29.280000000000001          1.2023486913109709E-044
  -29.220000000000002          9.6014895493178252E-045
  -29.160000000000000          6.9199924679768110E-045
  -29.100000000000001          4.4114951983352170E-045
  -29.039999999999999          2.2489975520924636E-045
  -28.980000000000000          1.2109986818959419E-045
  -28.920000000000002          2.5949971754913041E-046
  -28.859999999999999          6.0549934094797096E-046
  -28.800000000000001          2.2489975520924636E-045
  -28.740000000000002          6.3144931270288400E-045
  -28.680000000000000          1.4185984559352462E-044
  -28.620000000000001          2.7247470342658693E-044
  -28.560000000000002          4.4720451324300141E-044
  -28.500000000000000          6.7729426280323037E-044
  -28.440000000000001          8.8308671240592652E-044
  -28.379999999999999          1.0730723522698400E-043
  -28.320000000000000          1.3101212797432223E-043
  -28.260000000000002          1.5428967179793704E-043
  -28.199999999999999          1.7389973747618356E-043
  -28.140000000000001          1.9553168631517929E-043
  -28.080000000000002          2.2319064749430964E-043
  -28.020000000000000          2.6015723468580714E-043
  -27.960000000000001          3.1400000617562051E-043
  -27.900000000000002          4.0090132470131953E-043
  -27.840000000000000          5.2545868687422815E-043
  -27.780000000000001          6.9080927375347268E-043
  -27.720000000000002          9.0480531086735767E-043
  -27.660000000000000          1.1595729610671093E-042
  -27.600000000000001          1.4535395119240584E-042
  -27.539999999999999          1.8277031137548448E-042
  -27.480000000000000          2.2919708760518859E-042
  -27.420000000000002          2.8678313286137047E-042
  -27.359999999999999          3.5810697661848932E-042
  -27.300000000000001          4.4396959357491616E-042
  -27.240000000000002          5.5076325210258050E-042
  -27.180000000000000          6.8660361598225439E-042
  -27.120000000000001          8.5722762631109266E-042
  -27.060000000000002          1.0737086550695525E-041
  -27.000000000000000          1.3416718646720899E-041
  -26.940000000000001          1.6732840317887790E-041
  -26.880000000000003          2.0835906119248100E-041
  -26.820000000000000          2.5957504924551810E-041
  -26.760000000000002          3.2403865813559140E-041
  -26.699999999999999          4.0481709211277273E-041
  -26.640000000000001          5.0583489948902768E-041
  -26.580000000000002          6.3200010880686684E-041
  -26.520000000000000          7.8867196438163711E-041
  -26.460000000000001          9.8322572004217109E-041
  -26.400000000000002          1.2248904970903739E-040
  -26.340000000000000          1.5243181297671052E-040
  -26.280000000000001          1.8959470317446278E-040
  -26.220000000000002          2.3557833652359167E-040
  -26.160000000000000          2.9249233109165078E-040
  -26.100000000000001          3.6289980179159615E-040
  -26.039999999999999          4.4999305316311722E-040
  -25.980000000000000          5.5764752529926137E-040
  -25.920000000000002          6.9075398746902703E-040
  -25.859999999999999          8.5523516358946232E-040
  -25.800000000000001          1.0583630868129190E-039
  -25.740000000000002          1.3091799399989664E-039
  -25.680000000000000          1.6186969450418188E-039
  -25.620000000000001          2.0003988920955352E-039
  -25.560000000000002          2.4709056583539227E-039
  -25.500000000000000          3.0505072497741297E-039
  -25.440000000000001          3.7642238857137245E-039
  -25.380000000000003          4.6425865198032668E-039
  -25.320000000000000          5.7230424771986229E-039
  -25.260000000000002          7.0513608886277406E-039
  -25.199999999999999          8.6835221744247940E-039
  -25.140000000000001          1.0687991398768455E-038
  -25.080000000000002          1.3148473704715248E-038
  -25.020000000000000          1.6167028751272554E-038
  -24.960000000000001          1.9868441203792310E-038
  -24.900000000000002          2.4404857422677770E-038
  -24.840000000000000          2.9961840952140788E-038
  -24.780000000000001          3.6765479804779948E-038
  -24.720000000000002          4.5091208040426126E-038
  -24.660000000000000          5.5274269305965428E-038
  -24.600000000000001          6.7722580319391319E-038
  -24.539999999999999          8.2932282309903203E-038
  -24.480000000000000          1.0150627173935656E-037
  -24.420000000000002          1.2417699575666346E-037
  -24.359999999999999          1.5183369455070764E-037
  -24.300000000000001          1.8555560252495928E-037
  -24.240000000000002          2.2665155650433514E-037
  -24.180000000000000          2.7670819142935775E-037
  -24.120000000000001          3.3764813781435226E-037
  -24.060000000000002          4.1179953049928876E-037
  -24.000000000000000          5.0197986095808310E-037
  -23.940000000000001          6.1159802378519950E-037
  -23.880000000000003          7.4477505332462729E-037
  -23.820000000000000          9.0649113197716370E-037
  -23.760000000000002          1.1027618672845095E-036
  -23.699999999999999          1.3408474393969597E-036
  -23.640000000000001          1.6295088191166051E-036
  -23.580000000000002          1.9793116597410101E-036
  -23.520000000000000          2.4029914004184283E-036
  -23.460000000000001          2.9158879057152911E-036
  -23.400000000000002          3.5364718919242216E-036
  -23.340000000000000          4.2869712102081277E-036
  -23.280000000000001          5.1941184552005558E-036
  -23.220000000000002          6.2900445990283551E-036
  -23.160000000000000          7.6133487794052338E-036
  -23.100000000000001          9.2103752029039381E-036
  -23.039999999999999          1.1136738442364611E-035
  -22.980000000000000          1.3459135511723029E-035
  -22.920000000000002          1.6257518272424846E-035
  -22.859999999999999          1.9627684326215145E-035
  -22.800000000000001          2.3684363565621833E-035
  -22.740000000000002          2.8564880737797767E-035
  -22.680000000000000          3.4433551929452805E-035
  -22.620000000000001          4.1486876380758827E-035
  -22.560000000000002          4.9959719410268213E-035
  -22.500000000000000          6.0132622260076860E-035
  -22.440000000000001          7.2340465261683015E-035
  -22.380000000000003          8.6982812718529504E-035
  -22.320000000000000          1.0453609674398216E-034
  -22.260000000000002          1.2556796402629650E-034
  -22.199999999999999          1.5075449754032342E-034
  -22.140000000000001          1.8090038401242839E-034
  -22.080000000000002          2.1696303739855565E-034
  -22.020000000000000          2.6008117240279561E-034
  -21.960000000000001          3.1160854811042238E-034
  -21.900000000000002          3.7315384797520401E-034
  -21.840000000000000          4.4662786654799179E-034
  -21.780000000000001          5.3429888806740073E-034
  -21.720000000000002          6.3885779373619303E-034
  -21.660000000000000          7.6349524262017433E-034
  -21.600000000000001          9.1199073217350020E-034
  -21.540000000000003          1.0888186193334693E-033
  -21.480000000000000          1.2992731116193336E-033
  -21.420000000000002          1.5496140607666341E-033
  -21.359999999999999          1.8472385195438973E-033
  -21.300000000000001          2.2008855167319967E-033
  -21.240000000000002          2.6208739963841882E-033
  -21.180000000000000          3.1193823621499709E-033
  -21.120000000000001          3.7107831364192506E-033
  -21.060000000000002          4.4120260290199283E-033
  -21.000000000000000          5.2430912036208440E-033
  -20.940000000000001          6.2275197691994056E-033
  -20.880000000000003          7.3930307728391881E-033
  -20.820000000000000          8.7722475031551468E-033
  -20.760000000000002          1.0403528930343477E-032
  -20.699999999999999          1.2331946775489130E-032
  -20.640000000000001          1.4610420578592253E-032
  -20.580000000000002          1.7301042889525542E-032
  -20.520000000000000          2.0476638315178583E-032
  -20.460000000000001          2.4222573333803534E-032
  -20.400000000000002          2.8638872109677119E-032
  -20.340000000000000          3.3842662657596235E-032
  -20.280000000000001          3.9971120375903798E-032
  -20.220000000000002          4.7184787446073513E-032
  -20.160000000000000          5.5671484771049309E-032
  -20.100000000000001          6.5650825037568375E-032
  -20.040000000000003          7.7379464305770226E-032
  -19.980000000000000          9.1157112228629999E-032
  -19.920000000000002          1.0733354587894267E-031
  -19.859999999999999          1.2631666943221899E-031
  -19.800000000000001          1.4858191387197357E-031
  -19.740000000000002          1.7468309147330732E-031
  -19.680000000000000          2.0526498882819688E-031
  -19.620000000000001          2.4107789664407506E-031
  -19.560000000000002          2.8299447620436908E-031
  -19.500000000000000          3.3202905801494514E-031
  -19.440000000000001          3.8935965730133561E-031
  -19.380000000000003          4.5635405574798678E-031
  -19.320000000000000          5.3459793823941251E-031
  -19.260000000000002          6.2592912798624683E-031
  -19.200000000000003          7.3247564242141297E-031
  -19.140000000000001          8.5669999430424402E-031
  -19.080000000000002          1.0014502431234305E-030
  -19.020000000000000          1.1700209572121262E-030
  -18.960000000000001          1.3662215521084317E-030
  -18.900000000000002          1.5944588006182903E-030
  -18.840000000000000          1.8598284934082452E-030
  -18.780000000000001          2.1682251762101347E-030
  -18.720000000000002          2.5264660269082214E-030
  -18.660000000000000          2.9424281559168416E-030
  -18.600000000000001          3.4252094346270805E-030
  -18.540000000000003          3.9853033386700069E-030
  -18.480000000000000          4.6347991905076065E-030
  -18.420000000000002          5.3876031938765428E-030
  -18.359999999999999          6.2596893964221723E-030
  -18.300000000000001          7.2693852692835937E-030
  -18.240000000000002          8.4376983346611945E-030
  -18.180000000000000          9.7886843520635727E-030
  -18.120000000000001          1.1349886868430923E-029
  -18.060000000000002          1.3152848770123066E-029
  -18.000000000000000          1.5233680869642678E-029
  -17.940000000000001          1.7633756125411311E-029
  -17.880000000000003          2.0400470321714537E-029
  -17.820000000000000          2.3588119847133977E-029
  -17.760000000000002          2.7258880270992046E-029
  -17.700000000000003          3.1483926321813503E-029
  -17.640000000000001          3.6344618833907087E-029
  -17.580000000000002          4.1933901602785832E-029
  -17.520000000000000          4.8357850806234046E-029
  -17.460000000000001          5.5737315785162411E-029
  -17.400000000000002          6.4209931535168154E-029
  -17.340000000000000          7.3932309443455971E-029
  -17.280000000000001          8.5082565383562075E-029
  -17.220000000000002          9.7863248553956607E-029
  -17.160000000000000          1.1250472287562995E-028
  -17.100000000000001          1.2926918735735119E-028
  -17.040000000000003          1.4845496130743390E-028
  -16.980000000000000          1.7040160268291946E-028
  -16.920000000000002          1.9549562501910500E-028
  -16.859999999999999          2.2417638379720699E-028
  -16.800000000000001          2.5694255934857843E-028
  -16.740000000000002          2.9435895552766444E-028
  -16.680000000000000          3.3706384045413029E-028
  -16.620000000000001          3.8577592534412555E-028
  -16.560000000000002          4.4130274700511084E-028
  -16.500000000000000          5.0455020704172937E-028
  -16.440000000000001          5.7653303381076155E-028
  -16.380000000000003          6.5838850159753759E-028
  -16.320000000000000          7.5139349268115660E-028
  -16.260000000000002          8.5698435955357263E-028
  -16.200000000000003          9.7678325194420869E-028
  -16.140000000000001          1.1126269770919419E-027
  -16.080000000000002          1.2665999323743020E-027
  -16.020000000000000          1.4410697955727165E-027
  -15.960000000000001          1.6387274316716084E-027
  -15.899999999999999          1.8626218445021497E-027
  -15.840000000000003          2.1161977176954666E-027
  -15.780000000000001          2.4033257727185629E-027
  -15.719999999999999          2.7283372108138691E-027
  -15.660000000000004          3.0960463391832898E-027
  -15.600000000000001          3.5117832150475921E-027
  -15.539999999999999          3.9814358309701682E-027
  -15.480000000000004          4.5114989988190474E-027
  -15.420000000000002          5.1091407268383862E-027
  -15.359999999999999          5.7823036551514886E-027