  -48.000000000000000          0.0000000000000000     
  -47.939999999999998          0.0000000000000000     
  -47.880000000000003          0.0000000000000000     
  -47.820000000000000          0.0000000000000000     
  -47.759999999999998          0.0000000000000000     
  -47.700000000000003          0.0000000000000000     
  -47.640000000000001          0.0000000000000000     
  -47.579999999999998          0.0000000000000000     
  -47.520000000000003          0.0000000000000000     
  -47.460000000000001          0.0000000000000000     
  -47.399999999999999          0.0000000000000000     
  -47.340000000000003          0.0000000000000000     
  -47.280000000000001          0.0000000000000000     
  -47.219999999999999          0.0000000000000000     
  -47.159999999999997          0.0000000000000000     
  -47.100000000000001          0.0000000000000000     
  -47.039999999999999          0.0000000000000000     
  -46.979999999999997          0.0000000000000000     
  -46.920000000000002          0.0000000000000000     
  -46.859999999999999          0.0000000000000000     
  -46.799999999999997          0.0000000000000000     
  -46.740000000000002          0.0000000000000000     
  -46.680000000000000          0.0000000000000000     
  -46.619999999999997          0.0000000000000000     
  -46.560000000000002          0.0000000000000000     
  -46.500000000000000          0.0000000000000000     
  -46.439999999999998          0.0000000000000000     
  -46.380000000000003          0.0000000000000000     
  -46.320000000000000          0.0000000000000000     
  -46.259999999999998          0.0000000000000000     
  -46.200000000000003          0.0000000000000000     
  -46.140000000000001          0.0000000000000000     
  -46.079999999999998          0.0000000000000000     
  -46.020000000000003          0.0000000000000000     
  -45.960000000000001          0.0000000000000000     
  -45.899999999999999          0.0000000000000000     
  -45.840000000000003          0.0000000000000000     
  -45.780000000000001          0.0000000000000000     
  -45.719999999999999          0.0000000000000000     
  -45.659999999999997          0.0000000000000000     
  -45.600000000000001          0.0000000000000000     
  -45.539999999999999          0.0000000000000000     
  -45.479999999999997          0.0000000000000000     
  -45.420000000000002          0.0000000000000000     
  -45.359999999999999          0.0000000000000000     
  -45.299999999999997          0.0000000000000000     
  -45.240000000000002          0.0000000000000000     
  -45.180000000000000          0.0000000000000000     
  -45.119999999999997          0.0000000000000000     
  -45.060000000000002          0.0000000000000000     
  -45.000000000000000          0.0000000000000000     
  -44.939999999999998          0.0000000000000000     
  -44.880000000000003          0.0000000000000000     
  -44.820000000000000          0.0000000000000000     
  -44.759999999999998          0.0000000000000000     
  -44.700000000000003          0.0000000000000000     
  -44.640000000000001          0.0000000000000000     
  -44.579999999999998          0.0000000000000000     
  -44.520000000000003          0.0000000000000000     
  -44.460000000000001          0.0000000000000000     
  -44.399999999999999          0.0000000000000000     
  -44.340000000000003          0.0000000000000000     
  -44.280000000000001          0.0000000000000000     
  -44.219999999999999          0.0000000000000000     
  -44.159999999999997          0.0000000000000000     
  -44.100000000000001          0.0000000000000000     
  -44.039999999999999          0.0000000000000000     
  -43.980000000000004          0.0000000000000000     
  -43.920000000000002          0.0000000000000000     
  -43.859999999999999          0.0000000000000000     
  -43.799999999999997          0.0000000000000000     
  -43.740000000000002          0.0000000000000000     
  -43.680000000000000          0.0000000000000000     
  -43.619999999999997          0.0000000000000000     
  -43.560000000000002          0.0000000000000000     
  -43.500000000000000          0.0000000000000000     
  -43.439999999999998          0.0000000000000000     
  -43.380000000000003          0.0000000000000000     
  -43.320000000000000          0.0000000000000000     
  -43.259999999999998          0.0000000000000000     
  -43.200000000000003          0.0000000000000000     
  -43.140000000000001          0.0000000000000000     
  -43.079999999999998          0.0000000000000000     
  -43.020000000000003          0.0000000000000000     
  -42.960000000000001          0.0000000000000000     
  -42.899999999999999          0.0000000000000000     
  -42.840000000000003          0.0000000000000000     
  -42.780000000000001          0.0000000000000000     
  -42.719999999999999          0.0000000000000000     
  -42.659999999999997          0.0000000000000000     
  -42.600000000000001          0.0000000000000000     
  -42.539999999999999          0.0000000000000000     
  -42.480000000000004          0.0000000000000000     
  -42.420000000000002          0.0000000000000000     
  -42.359999999999999          0.0000000000000000     
  -42.299999999999997          0.0000000000000000     
  -42.240000000000002          0.0000000000000000     
  -42.180000000000000          0.0000000000000000     
  -42.119999999999997          0.0000000000000000     
  -42.060000000000002          0.0000000000000000     
  -42.000000000000000          0.0000000000000000     
  -41.939999999999998          0.0000000000000000     
  -41.880000000000003          0.0000000000000000     
  -41.820000000000000          0.0000000000000000     
  -41.759999999999998          0.0000000000000000     
  -41.700000000000003          0.0000000000000000     
  -41.640000000000001          0.0000000000000000     
  -41.579999999999998          0.0000000000000000     
  -41.520000000000003          0.0000000000000000     
  -41.460000000000001          0.0000000000000000     
  -41.399999999999999          0.0000000000000000     
  -41.340000000000003          0.0000000000000000     
  -41.280000000000001          0.0000000000000000     
  -41.219999999999999          0.0000000000000000     
  -41.159999999999997          0.0000000000000000     
  -41.100000000000001          0.0000000000000000     
  -41.039999999999999          0.0000000000000000     
  -40.980000000000004          0.0000000000000000     
  -40.920000000000002          0.0000000000000000     
  -40.859999999999999          0.0000000000000000     
  -40.799999999999997          0.0000000000000000     
  -40.740000000000002          0.0000000000000000     
  -40.680000000000000          0.0000000000000000     
  -40.619999999999997          0.0000000000000000     
  -40.560000000000002          0.0000000000000000     
  -40.500000000000000          0.0000000000000000     
  -40.439999999999998          0.0000000000000000     
  -40.380000000000003          0.0000000000000000     
  -40.320000000000000          0.0000000000000000     
  -40.259999999999998          0.0000000000000000     
  -40.200000000000003          0.0000000000000000     
  -40.140000000000001          0.0000000000000000     
  -40.079999999999998          0.0000000000000000     
  -40.020000000000003          0.0000000000000000     
  -39.960000000000001          0.0000000000000000     
  -39.899999999999999          0.0000000000000000     
  -39.840000000000003          0.0000000000000000     
  -39.780000000000001          0.0000000000000000     
  -39.719999999999999          0.0000000000000000     
  -39.659999999999997          0.0000000000000000     
  -39.600000000000001          0.0000000000000000     
  -39.539999999999999          0.0000000000000000     
  -39.480000000000004          0.0000000000000000     
  -39.420000000000002          0.0000000000000000     
  -39.359999999999999          0.0000000000000000     
  -39.299999999999997          0.0000000000000000     
  -39.240000000000002          0.0000000000000000     
  -39.180000000000000          0.0000000000000000     
  -39.120000000000005          0.0000000000000000     
  -39.060000000000002          0.0000000000000000     
  -39.000000000000000          0.0000000000000000     
  -38.939999999999998          0.0000000000000000     
  -38.880000000000003          0.0000000000000000     
  -38.820000000000000          0.0000000000000000     
  -38.759999999999998          0.0000000000000000     
  -38.700000000000003          0.0000000000000000     
  -38.640000000000001          0.0000000000000000     
  -38.579999999999998          0.0000000000000000     
  -38.519999999999996          0.0000000000000000     
  -38.460000000000001          0.0000000000000000     
  -38.399999999999999          0.0000000000000000     
  -38.340000000000003          0.0000000000000000     
  -38.280000000000001          0.0000000000000000     
  -38.219999999999999          0.0000000000000000     
  -38.159999999999997          0.0000000000000000     
  -38.100000000000001          0.0000000000000000     
  -38.039999999999999          0.0000000000000000     
  -37.980000000000004          0.0000000000000000     
  -37.920000000000002          0.0000000000000000     
  -37.859999999999999          0.0000000000000000     
  -37.799999999999997          0.0000000000000000     
  -37.740000000000002          0.0000000000000000     
  -37.680000000000000          0.0000000000000000     
  -37.620000000000005          0.0000000000000000     
  -37.560000000000002          0.0000000000000000     
  -37.500000000000000          0.0000000000000000     
  -37.439999999999998          0.0000000000000000     
  -37.380000000000003          0.0000000000000000     
  -37.320000000000000          0.0000000000000000     
  -37.259999999999998          0.0000000000000000     
  -37.200000000000003          0.0000000000000000     
  -37.140000000000001          0.0000000000000000     
  -37.079999999999998          0.0000000000000000     
  -37.019999999999996          0.0000000000000000     
  -36.960000000000001          0.0000000000000000     
  -36.899999999999999          0.0000000000000000     
  -36.840000000000003          0.0000000000000000     
  -36.780000000000001          0.0000000000000000     
  -36.719999999999999          0.0000000000000000     
  -36.659999999999997          0.0000000000000000     
  -36.600000000000001          0.0000000000000000     
  -36.539999999999999          0.0000000000000000     
  -36.480000000000004          0.0000000000000000     
  -36.420000000000002          0.0000000000000000     
  -36.359999999999999          0.0000000000000000     
  -36.299999999999997          0.0000000000000000     
  -36.240000000000002          0.0000000000000000     
  -36.180000000000000          0.0000000000000000     
  -36.120000000000005          0.0000000000000000     
  -36.060000000000002          0.0000000000000000     
  -36.000000000000000          0.0000000000000000     
  -35.939999999999998          0.0000000000000000     
  -35.880000000000003          0.0000000000000000     
  -35.820000000000000          0.0000000000000000     
  -35.759999999999998          0.0000000000000000     
  -35.700000000000003          0.0000000000000000     
  -35.640000000000001          0.0000000000000000     
  -35.579999999999998          0.0000000000000000     
  -35.519999999999996          0.0000000000000000     
  -35.460000000000001          0.0000000000000000     
  -35.399999999999999          0.0000000000000000     
  -35.340000000000003          0.0000000000000000     
  -35.280000000000001          0.0000000000000000     
  -35.219999999999999          0.0000000000000000     
  -35.159999999999997          0.0000000000000000     
  -35.100000000000001          0.0000000000000000     
  -35.039999999999999          0.0000000000000000     
  -34.980000000000004          0.0000000000000000     
  -34.920000000000002          0.0000000000000000     
  -34.859999999999999          0.0000000000000000     
  -34.799999999999997          0.0000000000000000     
  -34.740000000000002          0.0000000000000000     
  -34.680000000000000          0.0000000000000000     
  -34.620000000000005          0.0000000000000000     
  -34.560000000000002          0.0000000000000000     
  -34.500000000000000          0.0000000000000000     
  -34.439999999999998          0.0000000000000000     
  -34.380000000000003          0.0000000000000000     
  -34.320000000000000          0.0000000000000000     
  -34.259999999999998          0.0000000000000000     
  -34.200000000000003          0.0000000000000000     
  -34.140000000000001          0.0000000000000000     
  -34.079999999999998          0.0000000000000000     
  -34.020000000000003          0.0000000000000000     
  -33.960000000000001          0.0000000000000000     
  -33.899999999999999          0.0000000000000000     
  -33.840000000000003          0.0000000000000000     
  -33.780000000000001          0.0000000000000000     
  -33.719999999999999          0.0000000000000000     
  -33.659999999999997          0.0000000000000000     
  -33.600000000000001          0.0000000000000000     
  -33.539999999999999          0.0000000000000000     
  -33.480000000000004          0.0000000000000000     
  -33.420000000000002          0.0000000000000000     
  -33.359999999999999          0.0000000000000000     
  -33.299999999999997          0.0000000000000000     
  -33.240000000000002          0.0000000000000000     
  -33.180000000000000          0.0000000000000000     
  -33.120000000000005          0.0000000000000000     
  -33.060000000000002          0.0000000000000000     
  -33.000000000000000          0.0000000000000000     
  -32.939999999999998          0.0000000000000000     
  -32.880000000000003          0.0000000000000000     
  -32.820000000000000          0.0000000000000000     
  -32.759999999999998          0.0000000000000000     
  -32.700000000000003          0.0000000000000000     
  -32.640000000000001          0.0000000000000000     
  -32.579999999999998          0.0000000000000000     
  -32.520000000000003          0.0000000000000000     
  -32.460000000000001          0.0000000000000000     
  -32.399999999999999          0.0000000000000000     
  -32.340000000000003          0.0000000000000000     
  -32.280000000000001          0.0000000000000000     
  -32.219999999999999          0.0000000000000000     
  -32.159999999999997          0.0000000000000000     
  -32.100000000000001          0.0000000000000000     
  -32.039999999999999          0.0000000000000000     
  -31.980000000000000          0.0000000000000000     
  -31.920000000000002          0.0000000000000000     
  -31.859999999999999          0.0000000000000000     
  -31.800000000000001          0.0000000000000000     
  -31.740000000000002          0.0000000000000000     
  -31.680000000000000          0.0000000000000000     
  -31.620000000000001          0.0000000000000000     
  -31.560000000000002          0.0000000000000000     
  -31.500000000000000          0.0000000000000000     
  -31.440000000000001          0.0000000000000000     
  -31.379999999999999          0.0000000000000000     
  -31.320000000000000          0.0000000000000000     
  -31.260000000000002          0.0000000000000000     
  -31.199999999999999          0.0000000000000000     
  -31.140000000000001          0.0000000000000000     
  -31.080000000000002          0.0000000000000000     
  -31.020000000000000          0.0000000000000000     
  -30.960000000000001          0.0000000000000000     
  -30.900000000000002          0.0000000000000000     
  -30.840000000000000          0.0000000000000000     
  -30.780000000000001          0.0000000000000000     
  -30.719999999999999          0.0000000000000000     
  -30.660000000000000          0.0000000000000000     
  -30.600000000000001          0.0000000000000000     
  -30.539999999999999          0.0000000000000000     
  -30.480000000000000          0.0000000000000000     
  -30.420000000000002          0.0000000000000000     
  -30.359999999999999          0.0000000000000000     
  -30.300000000000001          0.0000000000000000     
  -30.240000000000002          0.0000000000000000     
  -30.180000000000000          0.0000000000000000     
  -30.120000000000001          1.7299981169942027E-046
  -30.060000000000002          5.1899943509826082E-046
  -30.000000000000000          1.1244987760462318E-045
  -29.940000000000001          1.9029979286936230E-045
  -29.879999999999999          3.0274967047398548E-045
  -29.820000000000000          4.0654955749363764E-045
  -29.760000000000002          4.9304946334334778E-045
  -29.699999999999999          5.7954936919305792E-045
  -29.640000000000001          6.9199924679768110E-045
  -29.580000000000002          8.2174910557224630E-045
  -29.520000000000000          9.6014895493178252E-045
  -29.460000000000001          1.1331487666312028E-044
  -29.400000000000002          1.4185984559352462E-044
  -29.340000000000000          1.5656482958797535E-044
  -29.280000000000001          1.5829482770496955E-044
  -29.220000000000002          1.5137483523699274E-044
  -29.160000000000000          1.4272484465202173E-044
  -29.100000000000001          1.3666985124254202E-044
  -29.039999999999999          1.2369486536508550E-044
  -28.980000000000000          1.2196486724809129E-044
  -28.920000000000002          1.2109986818959419E-044
  -28.859999999999999          1.3407485406705071E-044
  -28.800000000000001          1.6002482582196375E-044
  -28.740000000000002          2.0932977215629853E-044
  -28.680000000000000          2.9755967612300287E-044
  -28.620000000000001          4.2557953678057387E-044
  -28.560000000000002          5.9857934847999415E-044
  -28.500000000000000          7.2565688375945407E-044
  -28.440000000000001          8.3952260647562258E-044
  -28.379999999999999          9.4595667611594266E-044
  -28.320000000000000          1.0801222216834211E-043
  -28.260000000000002          1.2192409349160474E-043
  -28.199999999999999          1.3326550205334163E-043
  -28.140000000000001          1.4821327547332619E-043
  -28.080000000000002          1.7091940923234451E-043
  -28.020000000000000          2.1003389391536760E-043
  -27.960000000000001          2.7751789687538036E-043
  -27.900000000000002          3.7700956476359574E-043
  -27.840000000000000          5.1451615915990606E-043
  -27.780000000000001          6.9801677204463189E-043
  -27.720000000000002          9.1126535829196963E-043
  -27.660000000000000          1.1709355348976089E-042
  -27.600000000000001          1.4650811013018691E-042
  -27.539999999999999          1.8102610754537759E-042
  -27.480000000000000          2.2436004956316488E-042
  -27.420000000000002          2.7754378574314019E-042
  -27.359999999999999          3.4548044922130888E-042
  -27.300000000000001          4.2776558610591620E-042
  -27.240000000000002          5.3188266499349729E-042
  -27.180000000000000          6.6501459760996842E-042
  -27.120000000000001          8.3483483123711135E-042
  -27.060000000000002          1.0504854951014059E-041
  -27.000000000000000          1.3225106787224012E-041
  -26.940000000000001          1.6586671223574188E-041
  -26.880000000000003          2.0740050547134004E-041
  -26.820000000000000          2.5920298778576479E-041
  -26.760000000000002          3.2423146596076331E-041
  -26.699999999999999          4.0582020824546400E-041
  -26.640000000000001          5.0765783891888177E-041
  -26.580000000000002          6.3415451614049896E-041
  -26.520000000000000          7.9110166985748871E-041
  -26.460000000000001          9.8538411896249099E-041
  -26.400000000000002          1.2264901102825760E-040
  -26.340000000000000          1.5252143734278364E-040
  -26.280000000000001          1.8960759939797338E-040
  -26.220000000000002          2.3548182664355872E-040
  -26.160000000000000          2.9229020171966384E-040
  -26.100000000000001          3.6265623035293402E-040
  -26.039999999999999          4.4971802371294221E-040
  -25.980000000000000          5.5741623917695153E-040
  -25.920000000000002          6.9057381410048595E-040
  -25.859999999999999          8.5510360466081051E-040
  -25.800000000000001          1.0582807410867626E-039
  -25.740000000000002          1.3091465657736221E-039
  -25.680000000000000          1.6187624033283514E-039
  -25.620000000000001          2.0005742823658077E-039
  -25.560000000000002          2.4712183724944893E-039
  -25.500000000000000          3.0509427565346485E-039
  -25.440000000000001          3.7647581410563804E-039
  -25.380000000000003          4.6431907929813308E-039
  -25.320000000000000          5.7237001930874499E-039
  -25.260000000000002          7.0519890995455956E-039
  -25.199999999999999          8.6841045727406858E-039
  -25.140000000000001          1.0688500111878320E-038
  -25.080000000000002          1.3148920168521156E-038
  -25.020000000000000          1.6167476712653022E-038
  -24.960000000000001          1.9868954526178193E-038
  -24.900000000000002          2.4405451475070237E-038
  -24.840000000000000          2.9962501555409856E-038
  -24.780000000000001          3.6766186219550802E-038
  -24.720000000000002          4.5091855502155023E-038
  -24.660000000000000          5.5274700375479339E-038
  -24.600000000000001          6.7722606556935100E-038
  -24.539999999999999          8.2931563515148644E-038
  -24.480000000000000          1.0150445019337156E-037
  -24.420000000000002          1.2417376295936967E-037
  -24.359999999999999          1.5182888208726136E-037
  -24.300000000000001          1.8554897725798322E-037
  -24.240000000000002          2.2664328869821088E-037
  -24.180000000000000          2.7669880125768751E-037
  -24.120000000000001          3.3763853513518665E-037
  -24.060000000000002          4.1179129421319123E-037
  -24.000000000000000          5.0197545189506649E-037
  -23.940000000000001          6.1160010227901214E-037
  -23.880000000000003          7.4478694396606621E-037
  -23.820000000000000          9.0651592378357907E-037
  -23.760000000000002          1.1028009762890611E-036
  -23.699999999999999          1.3409011004832297E-036
  -23.640000000000001          1.6295740821089057E-036
  -23.580000000000002          1.9793818560887508E-036
  -23.520000000000000          2.4030544138379295E-036
  -23.460000000000001          2.9159307017887621E-036
  -23.400000000000002          3.5364794033920288E-036
  -23.340000000000000          4.2869279720023883E-036
  -23.280000000000001          5.1940090421608658E-036
  -23.220000000000002          6.2898606707683557E-036
  -23.160000000000000          7.6130945530905560E-036
  -23.100000000000001          9.2100683100741552E-036
  -23.039999999999999          1.1136408014917624E-035
  -22.980000000000000          1.3458837292734604E-035
  -22.920000000000002          1.6257312909435733E-035
  -22.859999999999999          1.9627657483924143E-035
  -22.800000000000001          2.3684603676936976E-035
  -22.740000000000002          2.8565461594360775E-035
  -22.680000000000000          3.4434516310032377E-035
  -22.620000000000001          4.1488199224965621E-035
  -22.560000000000002          4.9961283126715810E-035
  -22.500000000000000          6.0134223726637582E-035
  -22.440000000000001          7.2341829233190665E-035
  -22.380000000000003          8.6983568301002382E-035
  -22.320000000000000          1.0453578312140938E-034
  -22.260000000000002          1.2556612730323317E-034
  -22.199999999999999          1.5075079076350844E-034
  -22.140000000000001          1.8089469011331677E-034
  -22.080000000000002          2.1695563946137911E-034
  -22.020000000000000          2.6007278209052249E-034
  -21.960000000000001          3.1160018387177718E-034
  -21.900000000000002          3.7314684756219358E-034
  -21.840000000000000          4.4662336731216489E-034
  -21.780000000000001          5.3429795576578646E-034
  -21.720000000000002          6.3886049079773436E-034
  -21.660000000000000          7.6350042913550658E-034
  -21.600000000000001          9.1199650176985960E-034
  -21.540000000000003          1.0888231511142650E-033
  -21.480000000000000          1.2992747524547849E-033
  -21.420000000000002          1.5496131245687130E-033
  -21.359999999999999          1.8472393542626029E-033
  -21.300000000000001          2.2008963447987017E-033
  -21.240000000000002          2.6209067799922569E-033
  -21.180000000000000          3.1194536388126821E-033
  -21.120000000000001          3.7109100982974363E-033
  -21.060000000000002          4.4122239477481894E-033
  -21.000000000000000          5.2433678677604781E-033
  -20.940000000000001          6.2278686991871882E-033
  -20.880000000000003          7.3934252959229617E-033
  -20.820000000000000          8.7726338693774435E-033
  -20.760000000000002          1.0403817775099676E-032
  -20.699999999999999          1.2332017277956108E-032
  -20.640000000000001          1.4610119423640641E-032
  -20.580000000000002          1.7300207537036412E-032
  -20.520000000000000          2.0475111015231438E-032
  -20.460000000000001          2.4220234972198517E-032
  -20.400000000000002          2.8635691810452095E-032
  -20.340000000000000          3.3838785114943205E-032
  -20.280000000000001          3.9966890285657827E-032
  -20.220000000000002          4.7180786014612238E-032
  -20.160000000000000          5.5668548694129083E-032
  -20.100000000000001          6.5649994168821826E-032
  -20.040000000000003          7.7381850598274279E-032
  -19.980000000000000          9.1163794606887854E-032
  -19.920000000000002          1.0734530145181982E-031
  -19.859999999999999          1.2633372408622475E-031
  -19.800000000000001          1.4860374921391756E-031
  -19.740000000000002          1.7470822579237010E-031
  -19.680000000000000          2.0529076907131304E-031
  -19.620000000000001          2.4110064020912216E-031
  -19.560000000000002          2.8300964221538844E-031
  -19.500000000000000          3.3203156491056225E-031
  -19.440000000000001          3.8934468728023981E-031
  -19.380000000000003          4.5631737055945148E-031
  -19.320000000000000          5.3453684502899773E-031
  -19.260000000000002          6.2584283585209947E-031
  -19.200000000000003          7.3236611103577145E-031
  -19.140000000000001          8.5657270802495632E-031
  -19.080000000000002          1.0013145210391150E-030
  -19.020000000000000          1.1698891954525877E-030
  -18.960000000000001          1.3661093964987779E-030
  -18.900000000000002          1.5943842561178643E-030
  -18.840000000000000          1.8598102648808232E-030
  -18.780000000000001          2.1682833061082890E-030
  -18.720000000000002          2.5266212294420784E-030
  -18.660000000000000          2.9427024016017341E-030
  -18.600000000000001          3.4256244474949332E-030
  -18.540000000000003          3.9858805063556735E-030
  -18.480000000000000          4.6355529138599536E-030
  -18.420000000000002          5.3885409527054427E-030
  -18.359999999999999          6.2608019204986607E-030
  -18.300000000000001          7.2706366804313250E-030
  -18.240000000000002          8.4390157962847905E-030
  -18.180000000000000          9.7899485434913950E-030
  -18.120000000000001          1.1350912882428373E-029
  -18.060000000000002          1.3153375450204054E-029
  -18.000000000000000          1.5233375415549609E-029
  -17.940000000000001          1.7632199759061666E-029
  -17.880000000000003          2.0397193010046408E-029
  -17.820000000000000          2.3582628727155484E-029
  -17.760000000000002          2.7250754395120673E-029
  -17.700000000000003          3.1472910773051165E-029
  -17.640000000000001          3.6330785103763993E-029
  -17.580000000000002          4.1917822400827365E-029
  -17.520000000000000          4.8340740355900322E-029
  -17.460000000000001          5.5721208827104507E-029
  -17.400000000000002          6.4197648408629347E-029
  -17.340000000000000          7.3927371515868746E-029
  -17.280000000000001          8.5088948195942079E-029
  -17.220000000000002          9.7884935992930445E-029
  -17.160000000000000          1.1254511661385482E-028
  -17.100000000000001          1.2933034243996869E-028
  -17.040000000000003          1.4853672545944301E-028
  -16.980000000000000          1.7050100400539843E-028
  -16.920000000000002          1.9560601333803123E-028
  -16.859999999999999          2.2428714727281850E-028
  -16.800000000000001          2.5703931841207623E-028
  -16.740000000000002          2.9442434411466691E-028
  -16.680000000000000          3.3707872959879855E-028
  -16.620000000000001          3.8572177428740994E-028
  -16.560000000000002          4.4116536682667780E-028
  -16.500000000000000          5.0432295946466401E-028
  -16.440000000000001          5.7622015221777309E-028
  -16.380000000000003          6.5800881705127625E-028
  -16.320000000000000          7.5098182963675005E-028
  -16.260000000000002          8.5659171989708219E-028
  -16.200000000000003          9.7647215188214955E-028
  -16.140000000000001          1.1124641487757335E-027
  -16.080000000000002          1.2666456287599837E-027
  -16.020000000000000          1.4413639458410351E-027
  -15.960000000000001          1.6392729808070154E-027
  -15.899999999999999          1.8633717152693708E-027
  -15.840000000000003          2.1170458103670147E-027
  -15.780000000000001          2.4041105260652499E-027
  -15.719999999999999          2.7288538046636147E-027
  -15.660000000000004          3.0960762591094188E-027
  -15.600000000000001          3.5111420279088844E-027
  -15.539999999999999          3.9800248495528616E-027
  -15.480000000000004          4.5093610319237769E-027
  -15.420000000000002          5.1065130564347505E-027
  -15.359999999999999          5.7796331961145655E-027