  -48.000000000000000          0.0000000000000000     
  -47.939999999999998          0.0000000000000000     
  -47.880000000000003          0.0000000000000000     
  -47.820000000000000          0.0000000000000000     
  -47.759999999999998          0.0000000000000000     
  -47.700000000000003          0.0000000000000000     
  -47.640000000000001          0.0000000000000000     
  -47.579999999999998          0.0000000000000000     
  -47.520000000000003          0.0000000000000000     
  -47.460000000000001          0.0000000000000000     
  -47.399999999999999          0.0000000000000000     
  -47.340000000000003          0.0000000000000000     
  -47.280000000000001          0.0000000000000000     
  -47.219999999999999          0.0000000000000000     
  -47.159999999999997          0.0000000000000000     
  -47.100000000000001          0.0000000000000000     
  -47.039999999999999          0.0000000000000000     
  -46.979999999999997          0.0000000000000000     
  -46.920000000000002          0.0000000000000000     
  -46.859999999999999          0.0000000000000000     
  -46.799999999999997          0.0000000000000000     
  -46.740000000000002          0.0000000000000000     
  -46.680000000000000          0.0000000000000000     
  -46.619999999999997          0.0000000000000000     
  -46.560000000000002          0.0000000000000000     
  -46.500000000000000          0.0000000000000000     
  -46.439999999999998          0.0000000000000000     
  -46.380000000000003          0.0000000000000000     
  -46.320000000000000          0.0000000000000000     
  -46.259999999999998          0.0000000000000000     
  -46.200000000000003          0.0000000000000000     
  -46.140000000000001          0.0000000000000000     
  -46.079999999999998          0.0000000000000000     
  -46.020000000000003          0.0000000000000000     
  -45.960000000000001          0.0000000000000000     
  -45.899999999999999          0.0000000000000000     
  -45.840000000000003          0.0000000000000000     
  -45.780000000000001          0.0000000000000000     
  -45.719999999999999          0.0000000000000000     
  -45.659999999999997          0.0000000000000000     
  -45.600000000000001          0.0000000000000000     
  -45.539999999999999          0.0000000000000000     
  -45.479999999999997          0.0000000000000000     
  -45.420000000000002          0.0000000000000000     
  -45.359999999999999          0.0000000000000000     
  -45.299999999999997          0.0000000000000000     
  -45.240000000000002          0.0000000000000000     
  -45.180000000000000          0.0000000000000000     
  -45.119999999999997          0.0000000000000000     
  -45.060000000000002          0.0000000000000000     
  -45.000000000000000          0.0000000000000000     
  -44.939999999999998          0.0000000000000000     
  -44.880000000000003          0.0000000000000000     
  -44.820000000000000          0.0000000000000000     
  -44.759999999999998          0.0000000000000000     
  -44.700000000000003          0.0000000000000000     
  -44.640000000000001          0.0000000000000000     
  -44.579999999999998          0.0000000000000000     
  -44.520000000000003          0.0000000000000000     
  -44.460000000000001          0.0000000000000000     
  -44.399999999999999          0.0000000000000000     
  -44.340000000000003          0.0000000000000000     
  -44.280000000000001          0.0000000000000000     
  -44.219999999999999          0.0000000000000000     
  -44.159999999999997          0.0000000000000000     
  -44.100000000000001          0.0000000000000000     
  -44.039999999999999          0.0000000000000000     
  -43.980000000000004          0.0000000000000000     
  -43.920000000000002          0.0000000000000000     
  -43.859999999999999          0.0000000000000000     
  -43.799999999999997          0.0000000000000000     
  -43.740000000000002          0.0000000000000000     
  -43.680000000000000          0.0000000000000000     
  -43.619999999999997          0.0000000000000000     
  -43.560000000000002          0.0000000000000000     
  -43.500000000000000          0.0000000000000000     
  -43.439999999999998          0.0000000000000000     
  -43.380000000000003          0.0000000000000000     
  -43.320000000000000          0.0000000000000000     
  -43.259999999999998          0.0000000000000000     
  -43.200000000000003          0.0000000000000000     
  -43.140000000000001          0.0000000000000000     
  -43.079999999999998          0.0000000000000000     
  -43.020000000000003          0.0000000000000000     
  -42.960000000000001          0.0000000000000000     
  -42.899999999999999          0.0000000000000000     
  -42.840000000000003          0.0000000000000000     
  -42.780000000000001          0.0000000000000000     
  -42.719999999999999          0.0000000000000000     
  -42.659999999999997          0.0000000000000000     
  -42.600000000000001          0.0000000000000000     
  -42.539999999999999          0.0000000000000000     
  -42.480000000000004          0.0000000000000000     
  -42.420000000000002          0.0000000000000000     
  -42.359999999999999          0.0000000000000000     
  -42.299999999999997          0.0000000000000000     
  -42.240000000000002          0.0000000000000000     
  -42.180000000000000          0.0000000000000000     
  -42.119999999999997          0.0000000000000000     
  -42.060000000000002          0.0000000000000000     
  -42.000000000000000          0.0000000000000000     
  -41.939999999999998          0.0000000000000000     
  -41.880000000000003          0.0000000000000000     
  -41.820000000000000          0.0000000000000000     
  -41.759999999999998          0.0000000000000000     
  -41.700000000000003          0.0000000000000000     
  -41.640000000000001          0.0000000000000000     
  -41.579999999999998          0.0000000000000000     
  -41.520000000000003          0.0000000000000000     
  -41.460000000000001          0.0000000000000000     
  -41.399999999999999          0.0000000000000000     
  -41.340000000000003          0.0000000000000000     
  -41.280000000000001          0.0000000000000000     
  -41.219999999999999          0.0000000000000000     
  -41.159999999999997          0.0000000000000000     
  -41.100000000000001          0.0000000000000000     
  -41.039999999999999          0.0000000000000000     
  -40.980000000000004          0.0000000000000000     
  -40.920000000000002          0.0000000000000000     
  -40.859999999999999          0.0000000000000000     
  -40.799999999999997          0.0000000000000000     
  -40.740000000000002          0.0000000000000000     
  -40.680000000000000          0.0000000000000000     
  -40.619999999999997          0.0000000000000000     
  -40.560000000000002          0.0000000000000000     
  -40.500000000000000          0.0000000000000000     
  -40.439999999999998          0.0000000000000000     
  -40.380000000000003          0.0000000000000000     
  -40.320000000000000          0.0000000000000000     
  -40.259999999999998          0.0000000000000000     
  -40.200000000000003          0.0000000000000000     
  -40.140000000000001          0.0000000000000000     
  -40.079999999999998          0.0000000000000000     
  -40.020000000000003          0.0000000000000000     
  -39.960000000000001          0.0000000000000000     
  -39.899999999999999          0.0000000000000000     
  -39.840000000000003          0.0000000000000000     
  -39.780000000000001          0.0000000000000000     
  -39.719999999999999          0.0000000000000000     
  -39.659999999999997          0.0000000000000000     
  -39.600000000000001          0.0000000000000000     
  -39.539999999999999          0.0000000000000000     
  -39.480000000000004          0.0000000000000000     
  -39.420000000000002          0.0000000000000000     
  -39.359999999999999          0.0000000000000000     
  -39.299999999999997          0.0000000000000000     
  -39.240000000000002          0.0000000000000000     
  -39.180000000000000          0.0000000000000000     
  -39.120000000000005          0.0000000000000000     
  -39.060000000000002          0.0000000000000000     
  -39.000000000000000          0.0000000000000000     
  -38.939999999999998          0.0000000000000000     
  -38.880000000000003          0.0000000000000000     
  -38.820000000000000          0.0000000000000000     
  -38.759999999999998          0.0000000000000000     
  -38.700000000000003          0.0000000000000000     
  -38.640000000000001          0.0000000000000000     
  -38.579999999999998          0.0000000000000000     
  -38.519999999999996          0.0000000000000000     
  -38.460000000000001          0.0000000000000000     
  -38.399999999999999          0.0000000000000000     
  -38.340000000000003          0.0000000000000000     
  -38.280000000000001          0.0000000000000000     
  -38.219999999999999          0.0000000000000000     
  -38.159999999999997          0.0000000000000000     
  -38.100000000000001          0.0000000000000000     
  -38.039999999999999          0.0000000000000000     
  -37.980000000000004          0.0000000000000000     
  -37.920000000000002          0.0000000000000000     
  -37.859999999999999          0.0000000000000000     
  -37.799999999999997          0.0000000000000000     
  -37.740000000000002          0.0000000000000000     
  -37.680000000000000          0.0000000000000000     
  -37.620000000000005          0.0000000000000000     
  -37.560000000000002          0.0000000000000000     
  -37.500000000000000          0.0000000000000000     
  -37.439999999999998          0.0000000000000000     
  -37.380000000000003          0.0000000000000000     
  -37.320000000000000          0.0000000000000000     
  -37.259999999999998          0.0000000000000000     
  -37.200000000000003          0.0000000000000000     
  -37.140000000000001          0.0000000000000000     
  -37.079999999999998          0.0000000000000000     
  -37.019999999999996          0.0000000000000000     
  -36.960000000000001          0.0000000000000000     
  -36.899999999999999          0.0000000000000000     
  -36.840000000000003          0.0000000000000000     
  -36.780000000000001          0.0000000000000000     
  -36.719999999999999          0.0000000000000000     
  -36.659999999999997          0.0000000000000000     
  -36.600000000000001          0.0000000000000000     
  -36.539999999999999          0.0000000000000000     
  -36.480000000000004          0.0000000000000000     
  -36.420000000000002          0.0000000000000000     
  -36.359999999999999          0.0000000000000000     
  -36.299999999999997          0.0000000000000000     
  -36.240000000000002          0.0000000000000000     
  -36.180000000000000          0.0000000000000000     
  -36.120000000000005          0.0000000000000000     
  -36.060000000000002          0.0000000000000000     
  -36.000000000000000          0.0000000000000000     
  -35.939999999999998          0.0000000000000000     
  -35.880000000000003          0.0000000000000000     
  -35.820000000000000          0.0000000000000000     
  -35.759999999999998          0.0000000000000000     
  -35.700000000000003          0.0000000000000000     
  -35.640000000000001          0.0000000000000000     
  -35.579999999999998          0.0000000000000000     
  -35.519999999999996          0.0000000000000000     
  -35.460000000000001          0.0000000000000000     
  -35.399999999999999          0.0000000000000000     
  -35.340000000000003          0.0000000000000000     
  -35.280000000000001          0.0000000000000000     
  -35.219999999999999          0.0000000000000000     
  -35.159999999999997          0.0000000000000000     
  -35.100000000000001          0.0000000000000000     
  -35.039999999999999          0.0000000000000000     
  -34.980000000000004          0.0000000000000000     
  -34.920000000000002          0.0000000000000000     
  -34.859999999999999          0.0000000000000000     
  -34.799999999999997          0.0000000000000000     
  -34.740000000000002          0.0000000000000000     
  -34.680000000000000          0.0000000000000000     
  -34.620000000000005          0.0000000000000000     
  -34.560000000000002          0.0000000000000000     
  -34.500000000000000          0.0000000000000000     
  -34.439999999999998          0.0000000000000000     
  -34.380000000000003          0.0000000000000000     
  -34.320000000000000          0.0000000000000000     
  -34.259999999999998          0.0000000000000000     
  -34.200000000000003          0.0000000000000000     
  -34.140000000000001          0.0000000000000000     
  -34.079999999999998          0.0000000000000000     
  -34.020000000000003          0.0000000000000000     
  -33.960000000000001          0.0000000000000000     
  -33.899999999999999          0.0000000000000000     
  -33.840000000000003          0.0000000000000000     
  -33.780000000000001          0.0000000000000000     
  -33.719999999999999          0.0000000000000000     
  -33.659999999999997          0.0000000000000000     
  -33.600000000000001          0.0000000000000000     
  -33.539999999999999          0.0000000000000000     
  -33.480000000000004          0.0000000000000000     
  -33.420000000000002          0.0000000000000000     
  -33.359999999999999          0.0000000000000000     
  -33.299999999999997          0.0000000000000000     
  -33.240000000000002          0.0000000000000000     
  -33.180000000000000          0.0000000000000000     
  -33.120000000000005          0.0000000000000000     
  -33.060000000000002          0.0000000000000000     
  -33.000000000000000          0.0000000000000000     
  -32.939999999999998          0.0000000000000000     
  -32.880000000000003          0.0000000000000000     
  -32.820000000000000          0.0000000000000000     
  -32.759999999999998          0.0000000000000000     
  -32.700000000000003          0.0000000000000000     
  -32.640000000000001          0.0000000000000000     
  -32.579999999999998          0.0000000000000000     
  -32.520000000000003          0.0000000000000000     
  -32.460000000000001          0.0000000000000000     
  -32.399999999999999          0.0000000000000000     
  -32.340000000000003          0.0000000000000000     
  -32.280000000000001          0.0000000000000000     
  -32.219999999999999          0.0000000000000000     
  -32.159999999999997          0.0000000000000000     
  -32.100000000000001          0.0000000000000000     
  -32.039999999999999          0.0000000000000000     
  -31.980000000000000          0.0000000000000000     
  -31.920000000000002          0.0000000000000000     
  -31.859999999999999          0.0000000000000000     
  -31.800000000000001          0.0000000000000000     
  -31.740000000000002          0.0000000000000000     
  -31.680000000000000          0.0000000000000000     
  -31.620000000000001          0.0000000000000000     
  -31.560000000000002          0.0000000000000000     
  -31.500000000000000          0.0000000000000000     
  -31.440000000000001          0.0000000000000000     
  -31.379999999999999          0.0000000000000000     
  -31.320000000000000          0.0000000000000000     
  -31.260000000000002          0.0000000000000000     
  -31.199999999999999          0.0000000000000000     
  -31.140000000000001          0.0000000000000000     
  -31.080000000000002          0.0000000000000000     
  -31.020000000000000          0.0000000000000000     
  -30.960000000000001          0.0000000000000000     
  -30.900000000000002          0.0000000000000000     
  -30.840000000000000          0.0000000000000000     
  -30.780000000000001          0.0000000000000000     
  -30.719999999999999          0.0000000000000000     
  -30.660000000000000          0.0000000000000000     
  -30.600000000000001          0.0000000000000000     
  -30.539999999999999          0.0000000000000000     
  -30.480000000000000          0.0000000000000000     
  -30.420000000000002          0.0000000000000000     
  -30.359999999999999          0.0000000000000000     
  -30.300000000000001          0.0000000000000000     
  -30.240000000000002          0.0000000000000000     
  -30.180000000000000          0.0000000000000000     
  -30.120000000000001          1.7299981169942027E-046
  -30.060000000000002          5.1899943509826082E-046
  -30.000000000000000          1.1244987760462318E-045
  -29.940000000000001          1.9029979286936230E-045
  -29.879999999999999          2.5084972696415940E-045
  -29.820000000000000          2.9409967988901447E-045
  -29.760000000000002          3.4599962339884055E-045
  -29.699999999999999          3.9789956690866663E-045
  -29.640000000000001          4.7574948217340575E-045
  -29.580000000000002          5.8819935977802893E-045
  -29.520000000000000          7.0929922796762312E-045
  -29.460000000000001          8.6499905849710137E-045
  -29.400000000000002          1.1331487666312028E-044
  -29.340000000000000          1.2455986442358260E-044
  -29.280000000000001          1.2196486724809129E-044
  -29.220000000000002          1.0898988137063477E-044
  -29.160000000000000          9.4284897376184049E-045
  -29.100000000000001          1.0033989078566376E-044
  -29.039999999999999          1.0898988137063477E-044
  -28.980000000000000          1.2974985877456521E-044
  -28.920000000000002          1.5137483523699274E-044
  -28.859999999999999          1.8597479757687679E-044
  -28.800000000000001          2.3354974579421737E-044
  -28.740000000000002          2.9496467894751157E-044
  -28.680000000000000          3.7021959703675939E-044
  -28.620000000000001          4.7142448688092025E-044
  -28.560000000000002          6.1933932588392458E-044
  -28.500000000000000          7.2306188658396276E-044
  -28.440000000000001          7.8762266296579650E-044
  -28.379999999999999          8.4648178438877601E-044
  -28.320000000000000          9.3307238173891392E-044
  -28.260000000000002          1.0626761053280720E-043
  -28.199999999999999          1.2704830826325947E-043
  -28.140000000000001          1.5144825408944593E-043
  -28.080000000000002          1.8360521037276121E-043
  -28.020000000000000          2.2515629257429335E-043
  -27.960000000000001          2.8375655888584078E-043
  -27.900000000000002          3.7524237242157443E-043
  -27.840000000000000          5.0412472988696855E-043
  -27.780000000000001          6.7683860819453542E-043
  -27.720000000000002          8.9903753666880715E-043
  -27.660000000000000          1.1631037437308832E-042
  -27.600000000000001          1.4672050172345451E-042
  -27.539999999999999          1.8464415637785065E-042
  -27.480000000000000          2.3104063933885542E-042
  -27.420000000000002          2.8859639132633795E-042
  -27.359999999999999          3.6008889159821179E-042
  -27.300000000000001          4.4631911485284796E-042
  -27.240000000000002          5.5313127521418417E-042
  -27.180000000000000          6.8883813433684951E-042
  -27.120000000000001          8.5977107775226139E-042
  -27.060000000000002          1.0769317008687000E-041
  -27.000000000000000          1.3447548657878585E-041
  -26.940000000000001          1.6754301825450426E-041
  -26.880000000000003          2.0847060507488826E-041
  -26.820000000000000          2.5953767698460592E-041
  -26.760000000000002          3.2385179306504236E-041
  -26.699999999999999          4.0457866942359900E-041
  -26.640000000000001          5.0545841927537955E-041
  -26.580000000000002          6.3122692770312900E-041
  -26.520000000000000          7.8746056243300171E-041
  -26.460000000000001          9.8163746067573617E-041
  -26.400000000000002          1.2230974465709268E-040
  -26.340000000000000          1.5225650313279919E-040
  -26.280000000000001          1.8943680597130141E-040
  -26.220000000000002          2.3545852237246386E-040
  -26.160000000000000          2.9243244999906101E-040
  -26.100000000000001          3.6293630874896347E-040
  -26.039999999999999          4.5012181027697904E-040
  -25.980000000000000          5.5786112608092436E-040
  -25.920000000000002          6.9104020291586101E-040
  -25.859999999999999          8.5559384511816512E-040
  -25.800000000000001          1.0587964318880928E-039
  -25.740000000000002          1.3096741594220051E-039
  -25.680000000000000          1.6192179453214208E-039
  -25.620000000000001          2.0009236002071122E-039
  -25.560000000000002          2.4714653440796374E-039
  -25.500000000000000          3.0510867092486612E-039
  -25.440000000000001          3.7647955572363920E-039
  -25.380000000000003          4.6431195841262197E-039
  -25.320000000000000          5.7235135413009355E-039
  -25.260000000000002          7.0516947770794505E-039
  -25.199999999999999          8.6836611651568438E-039
  -25.140000000000001          1.0687925483322224E-038
  -25.080000000000002          1.3148181796260267E-038
  -25.020000000000000          1.6166561364298372E-038
  -24.960000000000001          1.9867859800610010E-038
  -24.900000000000002          2.4404239226497216E-038
  -24.840000000000000          2.9961241859095764E-038
  -24.780000000000001          3.6764959678230512E-038
  -24.720000000000002          4.5090785488048415E-038
  -24.660000000000000          5.5273949270429031E-038
  -24.600000000000001          6.7722376044172269E-038
  -24.539999999999999          8.2932069442526266E-038
  -24.480000000000000          1.0150591635640719E-037
  -24.420000000000002          1.2417635957120046E-037
  -24.359999999999999          1.5183276807452942E-037
  -24.300000000000001          1.8555452964411937E-037
  -24.240000000000002          2.2665088937512388E-037
  -24.180000000000000          2.7670885136362176E-037
  -24.120000000000001          3.3765133098196846E-037
  -24.060000000000002          4.1180685181012255E-037
  -24.000000000000000          5.0199350784906158E-037
  -23.940000000000001          6.1161981129817677E-037
  -23.880000000000003          7.4480635856233226E-037
  -23.820000000000000          9.0653189232248252E-037
  -23.760000000000002          1.1028096983196388E-036
  -23.699999999999999          1.3408979565875387E-036
  -23.640000000000001          1.6295547952857469E-036
  -23.580000000000002          1.9793419414759707E-036
  -23.520000000000000          2.4029895990357519E-036
  -23.460000000000001          2.9158352189868199E-036
  -23.400000000000002          3.5363453293139621E-036
  -23.340000000000000          4.2867466633306670E-036
  -23.280000000000001          5.1937729419366613E-036
  -23.220000000000002          6.2895660784144929E-036
  -23.160000000000000          7.6127411948849626E-036
  -23.100000000000001          9.2096716569333373E-036
  -23.039999999999999          1.1136012967524967E-035
  -22.980000000000000          1.3458514764777947E-035
  -22.920000000000002          1.6257186754315928E-035
  -22.859999999999999          1.9627875930576268E-035
  -22.800000000000001          2.3685345359943697E-035
  -22.740000000000002          2.8566921196768869E-035
  -22.680000000000000          3.4436851699587756E-035
  -22.620000000000001          4.1491539139520767E-035
  -22.560000000000002          4.9965632726396532E-035
  -22.500000000000000          6.0139406780949590E-035
  -22.440000000000001          7.2347399183602383E-035
  -22.380000000000003          8.6988722446145069E-035
  -22.320000000000000          1.0453939634089783E-034
  -22.260000000000002          1.2556681968867584E-034
  -22.199999999999999          1.5074694830316864E-034
  -22.140000000000001          1.8088469074078418E-034
  -22.080000000000002          2.1693821998105099E-034
  -22.020000000000000          2.6004738326725096E-034
  -21.960000000000001          3.1156766343149517E-034
  -21.900000000000002          3.7310942659366946E-034
  -21.840000000000000          4.4658541130656570E-034
  -21.780000000000001          5.3426503565119759E-034
  -21.720000000000002          6.3884012471889627E-034
  -21.660000000000000          7.6350077426032708E-034
  -21.600000000000001          9.1202571050376424E-034
  -21.540000000000003          1.0888875723888392E-033
  -21.480000000000000          1.2993783798761162E-033
  -21.420000000000002          1.5497555880964223E-033
  -21.359999999999999          1.8474152736008621E-033
  -21.300000000000001          2.2010952192174190E-033
  -21.240000000000002          2.6211126779210906E-033
  -21.180000000000000          3.1196464687534975E-033
  -21.120000000000001          3.7110646018353477E-033
  -21.060000000000002          4.4123085848308025E-033
  -21.000000000000000          5.2433457481527348E-033
  -20.940000000000001          6.2276974797039004E-033
  -20.880000000000003          7.3930559311304187E-033
  -20.820000000000000          8.7720081458689320E-033
  -20.760000000000002          1.0402883243343430E-032
  -20.699999999999999          1.2330723877940091E-032
  -20.640000000000001          1.4608463349034643E-032
  -20.580000000000002          1.7298245595966576E-032
  -20.520000000000000          2.0472981794287065E-032
  -20.460000000000001          2.4218193240234213E-032
  -20.400000000000002          2.8634124846546451E-032
  -20.340000000000000          3.3838194107147480E-032
  -20.280000000000001          3.9967852297164222E-032
  -20.220000000000002          4.7183921424029205E-032
  -20.160000000000000          5.5674374094243292E-032
  -20.100000000000001          6.5658819960533593E-032
  -20.040000000000003          7.7393598298808223E-032
  -19.980000000000000          9.1177905066274389E-032
  -19.920000000000002          1.0736068402649198E-031
  -19.859999999999999          1.2634872783130492E-031
  -19.800000000000001          1.4861626560935641E-031
  -19.740000000000002          1.7471605491679935E-031
  -19.680000000000000          2.0529188835330827E-031
  -19.620000000000001          2.4109346822581186E-031
  -19.560000000000002          2.8299311674771951E-031
  -19.500000000000000          3.3200530280444496E-031
  -19.440000000000001          3.8930854854570876E-031
  -19.380000000000003          4.5627113403859800E-031
  -19.320000000000000          5.3447983525540468E-031
  -19.260000000000002          6.2577359861778914E-031
  -19.200000000000003          7.3228194161806434E-031
  -19.140000000000001          8.5647059407702155E-031
  -19.080000000000002          1.0011940370075438E-030
  -19.020000000000000          1.1697556894074602E-030
  -18.960000000000001          1.3659790283382197E-030
  -18.900000000000002          1.5942857817890882E-030
  -18.840000000000000          1.8597894102195184E-030
  -18.780000000000001          2.1683992613191986E-030
  -18.720000000000002          2.5269358623259344E-030
  -18.660000000000000          2.9432682524433718E-030
  -18.600000000000001          3.4264654918890181E-030
  -18.540000000000003          3.9869683378655373E-030
  -18.480000000000000          4.6367869620217963E-030
  -18.420000000000002          5.3897302339322295E-030
  -18.359999999999999          6.2616716485596790E-030
  -18.300000000000001          7.2708506770427309E-030
  -18.240000000000002          8.4382234391749773E-030
  -18.180000000000000          9.7878761539217428E-030
  -18.120000000000001          1.1347457319668603E-029
  -18.060000000000002          1.3148693786089918E-029
  -18.000000000000000          1.5227964277753140E-029
  -17.940000000000001          1.7626940631270382E-029
  -17.880000000000003          2.0393287881227193E-029
  -17.820000000000000          2.3581492752352135E-029
  -17.760000000000002          2.7253735254295981E-029
  -17.700000000000003          3.1480975747639155E-029
  -17.640000000000001          3.6344133512170335E-029
  -17.580000000000002          4.1935542634748484E-029
  -17.520000000000000          4.8360623459126788E-029
  -17.460000000000001          5.5739761362683228E-029
  -17.400000000000002          6.4210450172362877E-029
  -17.340000000000000          7.3929798304016013E-029
  -17.280000000000001          8.5077206146002196E-029
  -17.220000000000002          9.7857248872283601E-029
  -17.160000000000000          1.1250292739654019E-028
  -17.100000000000001          1.2927901709233056E-028
  -17.040000000000003          1.4848584944482786E-028
  -16.980000000000000          1.7046325876908032E-028
  -16.920000000000002          1.9559529884252461E-028
  -16.859999999999999          2.2431494768874298E-028
  -16.800000000000001          2.5711096154906576E-028
  -16.740000000000002          2.9453455061462862E-028
  -16.680000000000000          3.3720866641168362E-028
  -16.620000000000001          3.8583773332068684E-028
  -16.560000000000002          4.4122002695148172E-028
  -16.500000000000000          5.0426158443964170E-028
  -16.440000000000001          5.7599158726606996E-028
  -16.380000000000003          6.5757893014844030E-028
  -16.320000000000000          7.5035024480553203E-028
  -16.260000000000002          8.5580691913058416E-028
  -16.200000000000003          9.7564404875965386E-028
  -16.140000000000001          1.1117669184501521E-027
  -16.080000000000002          1.2663099088129334E-027
  -16.020000000000000          1.4416554475149919E-027
  -15.960000000000001          1.6404559952670166E-027
  -15.899999999999999          1.8656569812333680E-027
  -15.840000000000003          2.1205319178560033E-027
  -15.780000000000001          2.4087219762642526E-027
  -15.719999999999999          2.7342876820917803E-027
  -15.660000000000004          3.1017692176072791E-027
  -15.600000000000001          3.5162672759415492E-027
  -15.539999999999999          3.9835277541096458E-027
  -15.480000000000004          4.5100330975481818E-027
  -15.420000000000002          5.1031158870432366E-027
  -15.359999999999999          5.7710697280139932E-027