  -48.000000000000000          0.0000000000000000     
  -47.939999999999998          0.0000000000000000     
  -47.880000000000003          0.0000000000000000     
  -47.820000000000000          0.0000000000000000     
  -47.759999999999998          0.0000000000000000     
  -47.700000000000003          0.0000000000000000     
  -47.640000000000001          0.0000000000000000     
  -47.579999999999998          0.0000000000000000     
  -47.520000000000003          0.0000000000000000     
  -47.460000000000001          0.0000000000000000     
  -47.399999999999999          0.0000000000000000     
  -47.340000000000003          0.0000000000000000     
  -47.280000000000001          0.0000000000000000     
  -47.219999999999999          0.0000000000000000     
  -47.159999999999997          0.0000000000000000     
  -47.100000000000001          0.0000000000000000     
  -47.039999999999999          0.0000000000000000     
  -46.979999999999997          0.0000000000000000     
  -46.920000000000002          0.0000000000000000     
  -46.859999999999999          0.0000000000000000     
  -46.799999999999997          0.0000000000000000     
  -46.740000000000002          0.0000000000000000     
  -46.680000000000000          0.0000000000000000     
  -46.619999999999997          0.0000000000000000     
  -46.560000000000002          0.0000000000000000     
  -46.500000000000000          0.0000000000000000     
  -46.439999999999998          0.0000000000000000     
  -46.380000000000003          0.0000000000000000     
  -46.320000000000000          0.0000000000000000     
  -46.259999999999998          0.0000000000000000     
  -46.200000000000003          0.0000000000000000     
  -46.140000000000001          0.0000000000000000     
  -46.079999999999998          0.0000000000000000     
  -46.020000000000003          0.0000000000000000     
  -45.960000000000001          0.0000000000000000     
  -45.899999999999999          0.0000000000000000     
  -45.840000000000003          0.0000000000000000     
  -45.780000000000001          0.0000000000000000     
  -45.719999999999999          0.0000000000000000     
  -45.659999999999997          0.0000000000000000     
  -45.600000000000001          0.0000000000000000     
  -45.539999999999999          0.0000000000000000     
  -45.479999999999997          0.0000000000000000     
  -45.420000000000002          0.0000000000000000     
  -45.359999999999999          0.0000000000000000     
  -45.299999999999997          0.0000000000000000     
  -45.240000000000002          0.0000000000000000     
  -45.180000000000000          0.0000000000000000     
  -45.119999999999997          0.0000000000000000     
  -45.060000000000002          0.0000000000000000     
  -45.000000000000000          0.0000000000000000     
  -44.939999999999998          0.0000000000000000     
  -44.880000000000003          0.0000000000000000     
  -44.820000000000000          0.0000000000000000     
  -44.759999999999998          0.0000000000000000     
  -44.700000000000003          0.0000000000000000     
  -44.640000000000001          0.0000000000000000     
  -44.579999999999998          0.0000000000000000     
  -44.520000000000003          0.0000000000000000     
  -44.460000000000001          0.0000000000000000     
  -44.399999999999999          0.0000000000000000     
  -44.340000000000003          0.0000000000000000     
  -44.280000000000001          0.0000000000000000     
  -44.219999999999999          0.0000000000000000     
  -44.159999999999997          0.0000000000000000     
  -44.100000000000001          0.0000000000000000     
  -44.039999999999999          0.0000000000000000     
  -43.980000000000004          0.0000000000000000     
  -43.920000000000002          0.0000000000000000     
  -43.859999999999999          0.0000000000000000     
  -43.799999999999997          0.0000000000000000     
  -43.740000000000002          0.0000000000000000     
  -43.680000000000000          0.0000000000000000     
  -43.619999999999997          0.0000000000000000     
  -43.560000000000002          0.0000000000000000     
  -43.500000000000000          0.0000000000000000     
  -43.439999999999998          0.0000000000000000     
  -43.380000000000003          0.0000000000000000     
  -43.320000000000000          0.0000000000000000     
  -43.259999999999998          0.0000000000000000     
  -43.200000000000003          0.0000000000000000     
  -43.140000000000001          0.0000000000000000     
  -43.079999999999998          0.0000000000000000     
  -43.020000000000003          0.0000000000000000     
  -42.960000000000001          0.0000000000000000     
  -42.899999999999999          0.0000000000000000     
  -42.840000000000003          0.0000000000000000     
  -42.780000000000001          0.0000000000000000     
  -42.719999999999999          0.0000000000000000     
  -42.659999999999997          0.0000000000000000     
  -42.600000000000001          0.0000000000000000     
  -42.539999999999999          0.0000000000000000     
  -42.480000000000004          0.0000000000000000     
  -42.420000000000002          0.0000000000000000     
  -42.359999999999999          0.0000000000000000     
  -42.299999999999997          0.0000000000000000     
  -42.240000000000002          0.0000000000000000     
  -42.180000000000000          0.0000000000000000     
  -42.119999999999997          0.0000000000000000     
  -42.060000000000002          0.0000000000000000     
  -42.000000000000000          0.0000000000000000     
  -41.939999999999998          0.0000000000000000     
  -41.880000000000003          0.0000000000000000     
  -41.820000000000000          0.0000000000000000     
  -41.759999999999998          0.0000000000000000     
  -41.700000000000003          0.0000000000000000     
  -41.640000000000001          0.0000000000000000     
  -41.579999999999998          0.0000000000000000     
  -41.520000000000003          0.0000000000000000     
  -41.460000000000001          0.0000000000000000     
  -41.399999999999999          0.0000000000000000     
  -41.340000000000003          0.0000000000000000     
  -41.280000000000001          0.0000000000000000     
  -41.219999999999999          0.0000000000000000     
  -41.159999999999997          0.0000000000000000     
  -41.100000000000001          0.0000000000000000     
  -41.039999999999999          0.0000000000000000     
  -40.980000000000004          0.0000000000000000     
  -40.920000000000002          0.0000000000000000     
  -40.859999999999999          0.0000000000000000     
  -40.799999999999997          0.0000000000000000     
  -40.740000000000002          0.0000000000000000     
  -40.680000000000000          0.0000000000000000     
  -40.619999999999997          0.0000000000000000     
  -40.560000000000002          0.0000000000000000     
  -40.500000000000000          0.0000000000000000     
  -40.439999999999998          0.0000000000000000     
  -40.380000000000003          0.0000000000000000     
  -40.320000000000000          0.0000000000000000     
  -40.259999999999998          0.0000000000000000     
  -40.200000000000003          0.0000000000000000     
  -40.140000000000001          0.0000000000000000     
  -40.079999999999998          0.0000000000000000     
  -40.020000000000003          0.0000000000000000     
  -39.960000000000001          0.0000000000000000     
  -39.899999999999999          0.0000000000000000     
  -39.840000000000003          0.0000000000000000     
  -39.780000000000001          0.0000000000000000     
  -39.719999999999999          0.0000000000000000     
  -39.659999999999997          0.0000000000000000     
  -39.600000000000001          0.0000000000000000     
  -39.539999999999999          0.0000000000000000     
  -39.480000000000004          0.0000000000000000     
  -39.420000000000002          0.0000000000000000     
  -39.359999999999999          0.0000000000000000     
  -39.299999999999997          0.0000000000000000     
  -39.240000000000002          0.0000000000000000     
  -39.180000000000000          0.0000000000000000     
  -39.120000000000005          0.0000000000000000     
  -39.060000000000002          0.0000000000000000     
  -39.000000000000000          0.0000000000000000     
  -38.939999999999998          0.0000000000000000     
  -38.880000000000003          0.0000000000000000     
  -38.820000000000000          0.0000000000000000     
  -38.759999999999998          0.0000000000000000     
  -38.700000000000003          0.0000000000000000     
  -38.640000000000001          0.0000000000000000     
  -38.579999999999998          0.0000000000000000     
  -38.519999999999996          1.4012984643248171E-045
  -38.460000000000001          2.8025969286496341E-045
  -38.399999999999999          4.2038953929744512E-045
  -38.340000000000003          7.0064923216240854E-045
  -38.280000000000001          1.1210387714598537E-044
  -38.219999999999999          1.8216880036222622E-044
  -38.159999999999997          2.6624670822171524E-044
  -38.100000000000001          3.7835058536770061E-044
  -38.039999999999999          5.4650640108667866E-044
  -37.980000000000004          7.7071415537864939E-044
  -37.920000000000002          1.0789998175301091E-043
  -37.859999999999999          1.5134023414708024E-043
  -37.799999999999997          2.1159606811304738E-043
  -37.740000000000002          2.9287137904388677E-043
  -37.680000000000000          4.0497525618987213E-043
  -37.620000000000005          5.5911808726560201E-043
  -37.560000000000002          7.6931285691432457E-043
  -37.500000000000000          1.0579803405652369E-042
  -37.439999999999998          1.3270296457156018E-042
  -37.380000000000003          1.6170984278308389E-042
  -37.320000000000000          1.9800347300909665E-042
  -37.259999999999998          2.4887060726408751E-042
  -37.200000000000003          3.2412033479833019E-042
  -37.140000000000001          4.2459343469041957E-042
  -37.079999999999998          5.5155107555824800E-042
  -37.019999999999996          7.1718455404144138E-042
  -36.960000000000001          9.4279360679773693E-042
  -36.899999999999999          1.2614488775852003E-041
  -36.840000000000003          1.7055203609297349E-041
  -36.780000000000001          2.2981294814927000E-041
  -36.719999999999999          3.1108825908010939E-041
  -36.659999999999997          4.2145452613033198E-041
  -36.600000000000001          5.7251450058454726E-041
  -36.539999999999999          7.7685184265239209E-041
  -36.480000000000004          1.0528656011704513E-040
  -36.420000000000002          1.4261014471433663E-040
  -36.359999999999999          1.9319701927646253E-040
  -36.299999999999997          2.6144025448908112E-040
  -36.240000000000002          3.5373817914029952E-040
  -36.180000000000000          4.7841590740667147E-040
  -36.120000000000005          6.4692344904019505E-040
  -36.060000000000002          8.7458540404672645E-040
  -36.000000000000000          1.1818915585716232E-039
  -35.939999999999998          1.5964166637958689E-039
  -35.880000000000003          2.1552502874732130E-039
  -35.820000000000000          2.9082254055919745E-039
  -35.759999999999998          3.9222820457929500E-039
  -35.700000000000003          5.2875110876460463E-039
  -35.640000000000001          7.1242462341782284E-039
  -35.579999999999998          9.5942589853050104E-039
  -35.519999999999996          1.2914205497894117E-038
  -35.460000000000001          1.7374273664430252E-038
  -35.399999999999999          2.3362858577673397E-038
  -35.340000000000003          3.1399811139321845E-038
  -35.280000000000001          4.2180227235723883E-038
  -35.219999999999999          5.6633225201963903E-038
  -35.159999999999997          7.6000033178786899E-038
  -35.100000000000001          1.0193792762359283E-037
  -35.039999999999999          1.3665887497789999E-037
  -34.980000000000004          1.8311360062842487E-037
  -34.920000000000002          2.4523579599305694E-037
  -34.859999999999999          3.2826755047101963E-037
  -34.799999999999997          4.3919021148429318E-037
  -34.740000000000002          5.8729768370533921E-037
  -34.680000000000000          7.8495502478335992E-037
  -34.620000000000005          1.0486058556258827E-036
  -34.560000000000002          1.4001055893888821E-036
  -34.500000000000000          1.8684885921545579E-036
  -34.439999999999998          2.4923052348789733E-036
  -34.380000000000003          3.3227158707181822E-036
  -34.320000000000000          4.4275790392199890E-036
  -34.259999999999998          5.8968565771813179E-036
  -34.200000000000003          7.8497523935448688E-036
  -34.140000000000001          1.0444134576065484E-035
  -34.079999999999998          1.3888970850194196E-035
  -34.020000000000003          1.8460729824720197E-035
  -33.960000000000001          2.4524984933509596E-035
  -33.899999999999999          3.2564898506075488E-035
  -33.840000000000003          4.3218708586630754E-035
  -33.780000000000001          5.7329077598906337E-035
  -33.719999999999999          7.6007975559116489E-035
  -33.659999999999997          1.0072202682034135E-034
  -33.600000000000001          1.3340461538460256E-034
  -33.539999999999999          1.7660310294292302E-034
  -33.480000000000004          2.3367211389614695E-034
  -33.420000000000002          3.0902701854349141E-034
  -33.359999999999999          4.0847652681131956E-034
  -33.299999999999997          5.3965820661423284E-034
  -33.240000000000002          7.1260928738144103E-034
  -33.180000000000000          9.4051394844787382E-034
  -33.120000000000005          1.2406806553631682E-033
  -33.060000000000002          1.6358210610111647E-033
  -33.000000000000000          2.1557214575577307E-033
  -32.939999999999998          2.8394255225234440E-033
  -32.880000000000003          3.7380863619522749E-033
  -32.820000000000000          4.9186867663609467E-033
  -32.759999999999998          6.4688938187368395E-033
  -32.700000000000003          8.5033850745263292E-033
  -32.640000000000001          1.1172095940202752E-032
  -32.579999999999998          1.4670955610109261E-032
  -32.520000000000003          1.9255871408471773E-032
  -32.460000000000001          2.5260906340166507E-032
  -32.399999999999999          3.3121927833006612E-032
  -32.340000000000003          4.3407347649700143E-032
  -32.280000000000001          5.6858032859796357E-032
  -32.219999999999999          7.4439143671189031E-032
  -32.159999999999997          9.7407368768247625E-032
  -32.100000000000001          1.2739817344127119E-031
  -32.039999999999999          1.6653883218452755E-031
  -31.980000000000000          2.1759491292478105E-031
  -31.920000000000002          2.8415996066721295E-031
  -31.859999999999999          3.7090093483840142E-031
  -31.800000000000001          4.8387574557530911E-031
  -31.740000000000002          6.3094386565696891E-031
  -31.680000000000000          8.2229657249625289E-031
  -31.620000000000001          1.0711422378365146E-030
  -31.560000000000002          1.3945903230132946E-030
  -31.500000000000000          1.8147926899294206E-030
  -31.440000000000001          2.3604142855472084E-030
  -31.379999999999999          3.0685294493752086E-030
  -31.320000000000000          3.9870639324523783E-030
  -31.260000000000002          5.1779393917563053E-030
  -31.199999999999999          6.7211185954028055E-030
  -31.140000000000001          8.7198088189194989E-030
  -31.080000000000002          1.1307152006774306E-029
  -31.020000000000000          1.4654813216221198E-029
  -30.960000000000001          1.8984019355610353E-029
  -30.900000000000002          2.4579717026428555E-029
  -30.840000000000000          3.1808734193138040E-029
  -30.780000000000001          4.1143063622961203E-029
  -30.719999999999999          5.3189713295385830E-029
  -30.660000000000000          6.8728904514273033E-029
  -30.600000000000001          8.8763005574772376E-029
  -30.539999999999999          1.1457908536606247E-028
  -30.480000000000000          1.4782894177907133E-028
  -30.420000000000002          1.9063136256799227E-028
  -30.359999999999999          2.4570272747463766E-028
  -30.300000000000001          3.1652376968749855E-028
  -30.240000000000002          4.0755234295235085E-028
  -30.180000000000000          5.2449476102729520E-028
  -30.120000000000001          6.7465167062664460E-028
  -30.060000000000002          8.6735882456282174E-028
  -30.000000000000000          1.1145477921755430E-027
  -29.940000000000001          1.4314602385999432E-027
  -29.879999999999999          1.8375559525871054E-027
  -29.820000000000000          2.3576673933574725E-027
  -29.760000000000002          3.0234663825499953E-027
  -29.699999999999999          3.8753277303328191E-027
  -29.640000000000001          4.9646922551485490E-027
  -29.580000000000002          6.3570687307185671E-027
  -29.520000000000000          8.1358345161952855E-027
  -29.460000000000001          1.0407057506963909E-026
  -29.400000000000002          1.3305599791822187E-026
  -29.340000000000000          1.7002844483917296E-026
  -29.280000000000001          2.1716473281887503E-026
  -29.220000000000002          2.7722830940105132E-026
  -29.160000000000000          3.5372556886477191E-026
  -29.100000000000001          4.5110323693259403E-026
  -29.039999999999999          5.7499757069792626E-026
  -28.980000000000000          7.3254887068866674E-026
  -28.920000000000002          9.3279837651014245E-026
  -28.859999999999999          1.1871880841842766E-025
  -28.800000000000001          1.5101907563529967E-025
  -28.740000000000002          1.9201034670450800E-025
  -28.680000000000000          2.4400458804998079E-025
  -28.620000000000001          3.0992163272692552E-025
  -28.560000000000002          3.9344703888453476E-025
  -28.500000000000000          4.9923057456531074E-025
  -28.440000000000001          6.3313537449159878E-025
  -28.379999999999999          8.0255069876260409E-025
  -28.320000000000000          1.0167843171990294E-024
  -28.260000000000002          1.2875546106365131E-024
  -28.199999999999999          1.6296073615458989E-024
  -28.140000000000001          2.0614876051251882E-024
  -28.080000000000002          2.6065072658074066E-024
  -28.020000000000000          3.2939545796359207E-024
  -27.960000000000001          4.1606070308730396E-024
  -27.900000000000002          5.2526228432355075E-024
  -27.840000000000000          6.6279028294447364E-024
  -27.780000000000001          8.3590407310123319E-024
  -27.720000000000002          1.0537003648793403E-023
  -27.660000000000000          1.3275724396746303E-023
  -27.600000000000001          1.6717822715647751E-023
  -27.539999999999999          2.1041734997954213E-023
  -27.480000000000000          2.6470596861594695E-023
  -27.420000000000002          3.3283291146948358E-023
  -27.359999999999999          4.1828197762422528E-023
  -27.300000000000001          5.2540281989381587E-023
  -27.240000000000002          6.5962321151384663E-023
  -27.180000000000000          8.2771306210961565E-023
  -27.120000000000001          1.0381114794274325E-022
  -27.060000000000002          1.3013329695919345E-022
  -27.000000000000000          1.6304714876700871E-022
  -26.940000000000001          2.0418237008951803E-022
  -26.880000000000003          2.5556627034426700E-022
  -26.820000000000000          3.1971946838271572E-022
  -26.760000000000002          3.9977433522199236E-022
  -26.699999999999999          4.9962133089825518E-022
  -26.640000000000001          6.2409005119988450E-022
  -26.580000000000002          7.7917273405003703E-022
  -26.520000000000000          9.7230032295814989E-022
  -26.460000000000001          1.2126831287132512E-021
  -26.400000000000002          1.5117307305774782E-021
  -26.340000000000000          1.8835698224495882E-021
  -26.280000000000001          2.3456822688086499E-021
  -26.220000000000002          2.9196902800611153E-021
  -26.160000000000000          3.6323237453372380E-021
  -26.100000000000001          4.5166080929312677E-021
  -26.039999999999999          5.6133280122447570E-021
  -25.980000000000000          6.9728215632987490E-021
  -25.920000000000002          8.6571866648618913E-021
  -25.859999999999999          1.0742988818486840E-020
  -25.800000000000001          1.3324580736173626E-020
  -25.740000000000002          1.6518176447224548E-020
  -25.680000000000000          2.0466834576758664E-020
  -25.620000000000001          2.5346578189774979E-020
  -25.560000000000002          3.1373865266059561E-020
  -25.500000000000000          3.8814745848060446E-020
  -25.440000000000001          4.7996046750615580E-020
  -25.380000000000003          5.9319053968389750E-020
  -25.320000000000000          7.3276208153316233E-020
  -25.260000000000002          9.0471490093052254E-020
  -25.199999999999999          1.1164530398401520E-019
  -25.140000000000001          1.3770482785127993E-019
  -25.080000000000002          1.6976097171985368E-019
  -25.020000000000000          2.0917340079692344E-019
  -24.960000000000001          2.5760539434857434E-019
  -24.900000000000002          3.1709064053425336E-019
  -24.840000000000000          3.9011424840801121E-019
  -24.780000000000001          4.7971145383003467E-019
  -24.720000000000002          5.8958750895667844E-019
  -24.660000000000000          7.2426305923312139E-019
  -24.600000000000001          8.8925079815293490E-019
  -24.539999999999999          1.0912695002415809E-018
  -24.480000000000000          1.3385038591663303E-018
  -24.420000000000002          1.6409186095738795E-018
  -24.359999999999999          2.0106399090515264E-018
  -24.300000000000001          2.4624157675356319E-018
  -24.240000000000002          3.0141733602493282E-018
  -24.180000000000000          3.6876935934920552E-018
  -24.120000000000001          4.5094259809405024E-018
  -24.060000000000002          5.5114696798550962E-018
  -24.000000000000000          6.7327633903911578E-018
  -23.940000000000001          8.2205151372877012E-018
  -23.880000000000003          1.0031927355034912E-017
  -23.820000000000000          1.2236280969427475E-017
  -23.760000000000002          1.4917438032507855E-017
  -23.699999999999999          1.8176853900766905E-017
  -23.640000000000001          2.2137207730852364E-017
  -23.580000000000002          2.6946765030119463E-017
  -23.520000000000000          3.2784612055547158E-017
  -23.460000000000001          3.9866955621283332E-017
  -23.400000000000002          4.8454681875082311E-017
  -23.340000000000000          5.8862403999844964E-017
  -23.280000000000001          7.1469357836647252E-017
  -23.220000000000002          8.6732388620357312E-017
  -23.160000000000000          1.0520159131065761E-016
  -23.100000000000001          1.2753895524305188E-016
  -23.039999999999999          1.5454072447518367E-016
  -22.980000000000000          1.8716410579445444E-016
  -22.920000000000002          2.2655918465477832E-016
  -22.859999999999999          2.7410711445110245E-016
  -22.800000000000001          3.3146553866120350E-016
  -22.740000000000002          4.0062305241721815E-016
  -22.680000000000000          4.8396392111676925E-016
  -22.620000000000001          5.8434516042116594E-016
  -22.560000000000002          7.0518865108841759E-016
  -22.500000000000000          8.5059059151188681E-016
  -22.440000000000001          1.0254517555057093E-015
  -22.380000000000003          1.2356322875759049E-015
  -22.320000000000000          1.4881360914050824E-015
  -22.260000000000002          1.7913292055341543E-015
  -22.199999999999999          2.1551997365980248E-015
  -22.140000000000001          2.5916656499227987E-015
  -22.080000000000002          3.1149401583634032E-015
  -22.020000000000000          3.7419649796561084E-015
  -21.960000000000001          4.4929236383845633E-015
  -21.900000000000002          5.3918475180535566E-015
  -21.840000000000000          6.4673354155777088E-015
  -21.780000000000001          7.7534041741187526E-015
  -21.720000000000002          9.2904902995456611E-015
  -21.660000000000000          1.1126640041725540E-014
  -21.600000000000001          1.3318907845919544E-014
  -21.540000000000003          1.5935010608128866E-014
  -21.480000000000000          1.9055276697906368E-014
  -21.420000000000002          2.2774943958742480E-014
  -21.359999999999999          2.7206862590199894E-014
  -21.300000000000001          3.2484689309157655E-014
  -21.240000000000002          3.8766631235438026E-014
  -21.180000000000000          4.6239857239395790E-014
  -21.120000000000001          5.5125676701357762E-014
  -21.060000000000002          6.5685643231040702E-014
  -21.000000000000000          7.8228669744308255E-014
  -20.940000000000001          9.3119454746930230E-014
  -20.880000000000003          1.1078829097611181E-013
  -20.820000000000000          1.3174261215363053E-013
  -20.760000000000002          1.5658049130288371E-013
  -20.699999999999999          1.8600641589049810E-013
  -20.640000000000001          2.2084985478853375E-013
  -20.580000000000002          2.6208684745024358E-013
  -20.520000000000000          3.1086526582069229E-013
  -20.460000000000001          3.6853441305606527E-013
  -20.400000000000002          4.3667939273253631E-013
  -20.340000000000000          5.1716150892971990E-013
  -20.280000000000001          6.1216494113419673E-013
  -20.220000000000002          7.2425165907955003E-013
  -20.160000000000000          8.5642495699367327E-013
  -20.100000000000001          1.0122035588172595E-012
  -20.040000000000003          1.1957080291169486E-012
  -19.980000000000000          1.4117607907357388E-012
  -19.920000000000002          1.6660029475770721E-012
  -19.859999999999999          1.9650294846157434E-012
  -19.800000000000001          2.3165464772129107E-012
  -19.740000000000002          2.7295533455012899E-012
  -19.680000000000000          3.2145544906492241E-012
  -19.620000000000001          3.7838035656101443E-012
  -19.560000000000002          4.4515875360917612E-012
  -19.500000000000000          5.2345554106547620E-012
  -19.440000000000001          6.1520979283136157E-012
  -19.380000000000003          7.2267851425333873E-012
  -19.320000000000000          8.4848759962508069E-012
  -19.260000000000002          9.9569050920900182E-012
  -19.200000000000003          1.1678354464028651E-011
  -19.140000000000001          1.3690438539770700E-011
  -19.080000000000002          1.6041001860145343E-011
  -19.020000000000000          1.8785551239575149E-011
  -18.960000000000001          2.1988457929444927E-011
  -18.900000000000002          2.5724320243392107E-011
  -18.840000000000000          3.0079549961925522E-011
  -18.780000000000001          3.5154192057351707E-011
  -18.720000000000002          4.1063989014711311E-011
  -18.660000000000000          4.7942799036304606E-011
  -18.600000000000001          5.5945328231166158E-011
  -18.540000000000003          6.5250291281238049E-011
  -18.480000000000000          7.6064023135646863E-011
  -18.420000000000002          8.8624593774788707E-011
  -18.359999999999999          1.0320657523044119E-010
  -18.300000000000001          1.2012642269798590E-010
  -18.240000000000002          1.3974869872424023E-010
  -18.180000000000000          1.6249314394034542E-010
  -18.120000000000001          1.8884277475095246E-010
  -18.060000000000002          2.1935306349085693E-010
  -18.000000000000000          2.5466251329930856E-010
  -17.940000000000001          2.9550462077310158E-010
  -17.880000000000003          3.4272157334314102E-010
  -17.820000000000000          3.9727982015236307E-010
  -17.760000000000002          4.6028778011297788E-010
  -17.700000000000003          5.3301596469879087E-010
  -17.640000000000001          6.1691995956181245E-010
  -17.580000000000002          7.1366634823988306E-010
  -17.520000000000000          8.2516227184470381E-010
  -17.460000000000001          9.5358909657505819E-010
  -17.400000000000002          1.1014401612996494E-009
  -17.340000000000000          1.2715639652327582E-009
  -17.280000000000001          1.4672129067250239E-009
  -17.220000000000002          1.6920987944146759E-009
  -17.160000000000000          1.9504549086946099E-009
  -17.100000000000001          2.2471065008744517E-009
  -17.040000000000003          2.5875510623052378E-009
  -16.980000000000000          2.9780482524444096E-009
  -16.920000000000002          3.4257210401733573E-009
  -16.859999999999999          3.9386711669919805E-009
  -16.800000000000001          4.5261074888003350E-009
  -16.740000000000002          5.1984927473824882E-009
  -16.680000000000000          5.9677054409235097E-009
  -16.620000000000001          6.8472254532991883E-009
  -16.560000000000002          7.8523409996478222E-009
  -16.500000000000000          9.0003826613838100E-009
  -16.440000000000001          1.0310982290206994E-008
  -16.380000000000003          1.1806368327427208E-008
  -16.320000000000000          1.3511693097711941E-008
  -16.260000000000002          1.5455405844022607E-008
  -16.200000000000003          1.7669657736973932E-008
  -16.140000000000001          2.0190771721217970E-008
  -16.080000000000002          2.3059756770749118E-008
  -16.020000000000000          2.6322888757590590E-008
  -15.960000000000001          3.0032353492970287E-008
  -15.899999999999999          3.4246966151840752E-008
  -15.840000000000003          3.9032983067954774E-008
  -15.780000000000001          4.4464997017712449E-008
  -15.719999999999999          5.0626933756348080E-008
  -15.660000000000004          5.7613171122739004E-008
  -15.600000000000001          6.5529775383765809E-008
  -15.539999999999999          7.4495893898074428E-008
  -15.480000000000004          8.4645265019389626E-008
  -15.420000000000002          9.6127941162649222E-008
  -15.359999999999999          1.0911217884768121E-007